 Gaussian 09, Revision E.01,
 Gaussian 09:  EM64L-G09RevE.01 30-Nov-2015

 ------------------------
 #p opt freq TPSSTPSS/gen
 ------------------------

 ----------------------------
 PY_H2O_TPSSTPSS_PC2_OPT_FREQ
 ----------------------------
 Symbolic Z-matrix:
 Charge =  0 Multiplicity = 1

 SCF Done:  E(RTPSS-TPSS) =  -400.190110604     A.U. after   16 cycles
 SCF Done:  E(RTPSS-TPSS) =  -400.190619435     A.U. after   12 cycles
 SCF Done:  E(RTPSS-TPSS) =  -400.190683643     A.U. after   11 cycles
 SCF Done:  E(RTPSS-TPSS) =  -400.190760546     A.U. after   11 cycles
 SCF Done:  E(RTPSS-TPSS) =  -400.190791544     A.U. after   11 cycles
 SCF Done:  E(RTPSS-TPSS) =  -400.190796640     A.U. after    8 cycles
 SCF Done:  E(RTPSS-TPSS) =  -400.190800375     A.U. after    8 cycles
 SCF Done:  E(RTPSS-TPSS) =  -400.190806631     A.U. after    8 cycles
 SCF Done:  E(RTPSS-TPSS) =  -400.190814027     A.U. after   10 cycles
 SCF Done:  E(RTPSS-TPSS) =  -400.190817262     A.U. after    9 cycles
 SCF Done:  E(RTPSS-TPSS) =  -400.190817617     A.U. after    7 cycles
 SCF Done:  E(RTPSS-TPSS) =  -400.190817753     A.U. after    7 cycles
 Optimization completed.
    -- Stationary point found.
 Normal termination of Gaussian 09 at Fri Aug 27 00:26:55 2021.

 ---------------------------------------------------------------------
 #P Geom=AllCheck Guess=TCheck SCRF=Check GenChk RTPSSTPSS/ChkBas Freq
 ---------------------------------------------------------------------

 Structure from the checkpoint file:  "PY_H2O_TPSSTPSS_PC2_OPT_FREQ.chk"
 ----------------------------
 PY_H2O_TPSSTPSS_PC2_OPT_FREQ
 ----------------------------
 Charge =  0 Multiplicity = 1

                         Standard orientation:
 ---------------------------------------------------------------------
 Center     Atomic      Atomic             Coordinates (Angstroms)
 Number     Number       Type             X           Y           Z
 ---------------------------------------------------------------------
      1          8           0        1.285192    1.396881    0.002717
      2          7           0        0.261157   -0.659097    0.009070
      3          6           0        0.221286    0.744942    0.005080
      4          6           0       -1.108992    1.294713    0.002387
      5          6           0       -0.832646   -1.464775    0.005108
      6          6           0       -2.213881    0.483406   -0.001062
      7          6           0       -2.091849   -0.930085   -0.000515
      8          1           0        2.648719    0.270522   -0.050690
      9          1           0       -1.190375    2.374961    0.000490
     10          1           0       -0.635001   -2.530452    0.005037
     11          1           0       -3.204352    0.929731   -0.005188
     12          1           0       -2.960112   -1.575716   -0.005060
     13          8           0        3.057229   -0.635816   -0.091375
     14          1           0        3.716212   -0.660451    0.615345
     15          1           0        1.213933   -1.052649    0.019851
 ---------------------------------------------------------------------

 SCF Done:  E(RTPSS-TPSS) =  -400.190817753     A.U. after    1 cycles

 The electronic state is 1-A.
 Alpha  occ. eigenvalues --  -18.87279 -18.85106 -14.15966 -10.08988 -10.05559
 Alpha  occ. eigenvalues --  -10.02076 -10.00612 -10.00318  -0.97115  -0.92898
 Alpha  occ. eigenvalues --   -0.89675  -0.76799  -0.70975  -0.61132  -0.59188
 Alpha  occ. eigenvalues --   -0.52170  -0.48000  -0.46504  -0.44389  -0.42851
 Alpha  occ. eigenvalues --   -0.40475  -0.39456  -0.35587  -0.34838  -0.33021
 Alpha  occ. eigenvalues --   -0.31638  -0.28591  -0.26196  -0.22688  -0.20635
 Alpha virt. eigenvalues --   -0.07928  -0.03200   0.00052   0.01591   0.02878
 Alpha virt. eigenvalues --    0.04602   0.06676   0.08377   0.09063   0.10730
 Alpha virt. eigenvalues --    0.12585   0.13818   0.14943   0.16334   0.17055

 Mulliken charges:
               1
     1  O   -0.528241
     2  N   -0.261567
     3  C    0.455760
     4  C   -0.116338
     5  C    0.178024
     6  C    0.047001
     7  C   -0.136983
     8  H    0.247490
     9  H    0.046613
    10  H    0.073048
    11  H    0.052484
    12  H    0.038757
    13  O   -0.483408
    14  H    0.219279
    15  H    0.168080
 Sum of Mulliken charges =   0.00000

 Dipole moment (field-independent basis, Debye):
    X=             -2.5323    Y=             -2.1650    Z=              1.2037  Tot=              3.5425
 Quadrupole moment (field-independent basis, Debye-Ang):
   XX=            -42.7279   YY=            -45.7059   ZZ=            -49.4154
   XY=             -2.1976   XZ=              5.0028   YZ=             -0.9945

  Exact polarizability: 105.072   5.672  86.716   1.156  -0.326  44.531
 Approx polarizability: 192.824  22.905 176.814   1.864  -0.425  72.558

                      1                      2                      3
                      A                      A                      A
 Frequencies --     72.7690               156.0823               177.4915
 Red. masses --      4.7470                 5.9548                 5.0698
 Frc consts  --      0.0148                 0.0855                 0.0941
 IR Inten    --      2.7889                23.6461                 1.6425

                      4                      5                      6
                      A                      A                      A
 Frequencies --    208.7617               264.2426               388.6480
 Red. masses --      5.4280                 1.1418                 3.4192
 Frc consts  --      0.1394                 0.0470                 0.3043
 IR Inten    --      4.3887               112.7150                 1.6058

                      7                      8                      9
                      A                      A                      A
 Frequencies --    458.6973               476.2998               503.4342
 Red. masses --      1.1191                 5.9565                 2.4506
 Frc consts  --      0.1387                 0.7962                 0.3659
 IR Inten    --    105.9620                18.3368                22.0390

                     10                     11                     12
                      A                      A                      A
 Frequencies --    541.6067               609.7386               722.9396
 Red. masses --      7.8504                 6.6934                 2.5762
 Frc consts  --      1.3568                 1.4662                 0.7933
 IR Inten    --      8.8798                 0.2622                10.7816

                     13                     14                     15
                      A                      A                      A
 Frequencies --    763.5131               808.0316               820.8863
 Red. masses --      1.5650                 1.2126                 3.3051
 Frc consts  --      0.5375                 0.4665                 1.3122
 IR Inten    --     52.1579               221.1488                38.4453

                     16                     17                     18
                      A                      A                      A
 Frequencies --    849.1112               888.3617               948.8715
 Red. masses --      1.4848                 1.2548                 1.1961
 Frc consts  --      0.6307                 0.5835                 0.6345
 IR Inten    --      3.6059                73.4675                11.8733

                     19                     20                     21
                      A                      A                      A
 Frequencies --    989.3736               990.2156              1017.2698
 Red. masses --      1.3258                 4.8111                 2.5304
 Frc consts  --      0.7646                 2.7794                 1.5428
 IR Inten    --      1.0478                23.2804                 1.7535

                     22                     23                     24
                      A                      A                      A
 Frequencies --   1109.9044              1155.2358              1223.4678
 Red. masses --      1.6827                 1.1928                 1.8836
 Frc consts  --      1.2213                 0.9379                 1.6612
 IR Inten    --      6.0120                16.6132                 0.0144

                     25                     26                     27
                      A                      A                      A
 Frequencies --   1248.4691              1384.5761              1445.3798
 Red. masses --      1.7387                 1.5397                 2.1555
 Frc consts  --      1.5967                 1.7391                 2.6531
 IR Inten    --     25.5019                 4.9996                31.0579

                     28                     29                     30
                      A                      A                      A
 Frequencies --   1478.2545              1551.8739              1617.8375
 Red. masses --      2.3939                 5.1049                 2.2367
 Frc consts  --      3.0822                 7.2435                 3.4493
 IR Inten    --      7.1581                23.9931               195.8834

                     31                     32                     33
                      A                      A                      A
 Frequencies --   1639.8141              1694.3855              3133.1192
 Red. masses --      1.5685                 2.5243                 1.0887
 Frc consts  --      2.4850                 4.2698                 6.2965
 IR Inten    --    211.5053               352.1330                13.5460

                     34                     35                     36
                      A                      A                      A
 Frequencies --   3166.2292              3178.2174              3191.8177
 Red. masses --      1.0899                 1.0928                 1.0965
 Frc consts  --      6.4374                 6.5036                 6.5818
 IR Inten    --      2.1787                 3.6440                 5.6474

                     37                     38                     39
                      A                      A                      A
 Frequencies --   3207.0741              3285.3580              3783.0556
 Red. masses --      1.0772                 1.0716                 1.0666
 Frc consts  --      6.5278                 6.8147                 8.9938
 IR Inten    --     23.1645              1212.3944                46.4622

 - Thermochemistry -
 -------------------
 Temperature   298.150 Kelvin.  Pressure   1.00000 Atm.
 Atom     1 has atomic number  8 and mass  15.99491

 Molecular mass:   113.04768 amu.
 Principal axes and moments of inertia in atomic units:
                           1         2         3
     Eigenvalues --   453.667571270.918201720.99991
           X            0.99992  -0.01099   0.00618
           Y            0.01101   0.99993  -0.00375
           Z           -0.00614   0.00382   0.99997
 This molecule is an asymmetric top.
 Rotational symmetry number  1.
 Warning -- assumption of classical behavior for rotation
           may cause significant error
 Rotational temperatures (Kelvin)      0.19092     0.06815     0.05033
 Rotational constants (GHZ):           3.97811     1.42003     1.04866
 Zero-point vibrational energy     305947.4 (Joules/Mol)
                                   73.12319 (Kcal/Mol)
 Warning -- explicit consideration of  11 degrees of freedom as
           vibrations may cause significant error
 Vibrational temperatures:    104.70   224.57   255.37   300.36   380.19
          (Kelvin)            559.18   659.96   685.29   724.33   779.25
                              877.28  1040.15  1098.52  1162.58  1181.07
                             1221.68  1278.15  1365.21  1423.49  1424.70
                             1463.62  1596.90  1662.12  1760.30  1796.27
                             1992.09  2079.58  2126.88  2232.80  2327.70
                             2359.32  2437.84  4507.85  4555.49  4572.74
                             4592.31  4614.26  4726.89  5442.97

 Zero-point correction=                           0.116529 (Hartree/Particle)
 Thermal correction to Energy=                    0.124508
 Thermal correction to Enthalpy=                  0.125453
 Thermal correction to Gibbs Free Energy=         0.084018
 Sum of electronic and zero-point Energies=           -400.074289
 Sum of electronic and thermal Energies=              -400.066309
 Sum of electronic and thermal Enthalpies=            -400.065365
 Sum of electronic and thermal Free Energies=         -400.106800

                     E (Thermal)             CV                S
                      KCal/Mol        Cal/Mol-Kelvin    Cal/Mol-Kelvin
 Total                   78.130             29.577             87.207
 Electronic               0.000              0.000              0.000
 Translational            0.889              2.981             40.084
 Rotational               0.889              2.981             28.386
 Vibrational             76.353             23.615             18.738
 Vibration     1          0.599              1.967              4.077
 Vibration     2          0.620              1.896              2.597
 Vibration     3          0.628              1.870              2.355
 Vibration     4          0.642              1.827              2.054
 Vibration     5          0.671              1.738              1.634
 Vibration     6          0.757              1.494              1.005
 Vibration     7          0.817              1.342              0.770
 Vibration     8          0.833              1.303              0.720
 Vibration     9          0.859              1.242              0.650
 Vibration    10          0.897              1.158              0.562
 Vibration    11          0.969              1.011              0.433

 Optimization completed.
    -- Stationary point found.
 Normal termination of Gaussian 09 at Fri Aug 27 00:28:08 2021.
