 Gaussian 09, Revision E.01,
 Gaussian 09:  EM64L-G09RevE.01 30-Nov-2015

 -------------------------------------------------------------
 #p opt=(calcfc,qst3,MaxCycle=200,cartesian) freq TPSSTPSS/gen
 -------------------------------------------------------------

 ----------------------------
 HY_H2O_TPSSTPSS_PC2_OPT_FREQ
 ----------------------------
 Symbolic Z-matrix:
 Charge =  0 Multiplicity = 1

 ----------------------------
 PY_H2O_TPSSTPSS_PC2_OPT_FREQ
 ----------------------------
 Symbolic Z-matrix:
 Charge =  0 Multiplicity = 1

 ----------------
 TST_H2O_TPSSTPSS
 ----------------
 Symbolic Z-matrix:
 Charge =  0 Multiplicity = 1

 SCF Done:  E(RTPSS-TPSS) =  -400.115530470     A.U. after   16 cycles
 SCF Done:  E(RTPSS-TPSS) =  -400.104924754     A.U. after   14 cycles
 SCF Done:  E(RTPSS-TPSS) =  -400.096129620     A.U. after   13 cycles
 SCF Done:  E(RTPSS-TPSS) =  -400.088784890     A.U. after   14 cycles
 SCF Done:  E(RTPSS-TPSS) =  -400.081429749     A.U. after   14 cycles
 SCF Done:  E(RTPSS-TPSS) =  -400.099735677     A.U. after   14 cycles
 SCF Done:  E(RTPSS-TPSS) =  -400.137550920     A.U. after   14 cycles
 SCF Done:  E(RTPSS-TPSS) =  -400.147325176     A.U. after   13 cycles
 SCF Done:  E(RTPSS-TPSS) =  -400.148396218     A.U. after   13 cycles
 SCF Done:  E(RTPSS-TPSS) =  -400.153659558     A.U. after   13 cycles
 SCF Done:  E(RTPSS-TPSS) =  -400.171199829     A.U. after   10 cycles
 SCF Done:  E(RTPSS-TPSS) =  -400.170565883     A.U. after   14 cycles
 SCF Done:  E(RTPSS-TPSS) =  -400.171128220     A.U. after   12 cycles
 SCF Done:  E(RTPSS-TPSS) =  -400.171186090     A.U. after   12 cycles
 SCF Done:  E(RTPSS-TPSS) =  -400.171227307     A.U. after   11 cycles
 SCF Done:  E(RTPSS-TPSS) =  -400.171229111     A.U. after    8 cycles
 SCF Done:  E(RTPSS-TPSS) =  -400.171229715     A.U. after    8 cycles
 SCF Done:  E(RTPSS-TPSS) =  -400.171230012     A.U. after    8 cycles
 SCF Done:  E(RTPSS-TPSS) =  -400.171230342     A.U. after    8 cycles
 Optimization completed.
    -- Stationary point found.
 Normal termination of Gaussian 09 at Sat Aug 28 14:04:46 2021.

 ---------------------------------------------------------------------
 #P Geom=AllCheck Guess=TCheck SCRF=Check GenChk RTPSSTPSS/ChkBas Freq
 ---------------------------------------------------------------------

 Structure from the checkpoint file:  "TST_H2O_TPSSTPSS.chk"
 ----------------------------
 HY_H2O_TPSSTPSS_PC2_OPT_FREQ
 ----------------------------
 Charge =  0 Multiplicity = 1

                         Standard orientation:
 ---------------------------------------------------------------------
 Center     Atomic      Atomic             Coordinates (Angstroms)
 Number     Number       Type             X           Y           Z
 ---------------------------------------------------------------------
      1          8           0        1.382573    1.336812   -0.012768
      2          7           0        0.315801   -0.686701   -0.014636
      3          6           0        0.259021    0.682466   -0.005146
      4          6           0       -1.010085    1.312002    0.011033
      5          6           0       -0.801782   -1.439239   -0.009661
      6          6           0       -2.148481    0.532883    0.015626
      7          6           0       -2.058965   -0.872479    0.005349
      8          1           0        2.239906    0.496233   -0.022638
      9          1           0       -1.050020    2.394506    0.017383
     10          1           0       -0.648528   -2.513645   -0.021613
     11          1           0       -3.124011    1.009963    0.026505
     12          1           0       -2.943539   -1.497132    0.007003
     13          8           0        2.754600   -0.653350   -0.078839
     14          1           0        3.240935   -0.853503    0.733703
     15          1           0        1.539019   -0.991020   -0.008240
 ---------------------------------------------------------------------

 SCF Done:  E(RTPSS-TPSS) =  -400.171230342     A.U. after    1 cycles

 The electronic state is 1-A.
 Alpha  occ. eigenvalues --  -18.87650 -18.86301 -14.13527 -10.09136 -10.04891
 Alpha  occ. eigenvalues --  -10.02178 -10.00578 -10.00573  -0.98781  -0.90719
 Alpha  occ. eigenvalues --   -0.88820  -0.76310  -0.70991  -0.61065  -0.58479
 Alpha  occ. eigenvalues --   -0.51041  -0.49582  -0.45692  -0.43808  -0.42087
 Alpha  occ. eigenvalues --   -0.40588  -0.39325  -0.35928  -0.35283  -0.32015
 Alpha  occ. eigenvalues --   -0.31287  -0.28179  -0.26005  -0.23716  -0.21345
 Alpha virt. eigenvalues --   -0.07633  -0.03894   0.00354   0.01772   0.03069
 Alpha virt. eigenvalues --    0.04930   0.06623   0.08493   0.09653   0.11240
 Alpha virt. eigenvalues --    0.13075   0.14061   0.15039   0.16741   0.17141

 Mulliken charges:
               1
     1  O   -0.484815
     2  N   -0.384865
     3  C    0.489366
     4  C   -0.109640
     5  C    0.168516
     6  C    0.055821
     7  C   -0.139865
     8  H    0.267869
     9  H    0.046363
    10  H    0.069180
    11  H    0.052869
    12  H    0.036855
    13  O   -0.539399
    14  H    0.213780
    15  H    0.257965
 Sum of Mulliken charges =  -0.00000

 Dipole moment (field-independent basis, Debye):
    X=             -2.8088    Y=             -1.5637    Z=              1.3691  Tot=              3.4941
 Quadrupole moment (field-independent basis, Debye-Ang):
   XX=            -45.3139   YY=            -45.1865   ZZ=            -49.0165
   XY=             -2.2928   XZ=              4.9098   YZ=             -1.3068

  Exact polarizability: 108.664   2.209  86.480   1.175  -0.293  44.374
 Approx polarizability: 197.286  15.402 175.646   1.013  -0.347  73.297

 ******    1 imaginary frequencies (negative Signs) ******

                      1                      2                      3
                      A                      A                      A
 Frequencies --  -1462.7523               107.6298               203.4131
 Red. masses --      1.0562                 5.2441                 5.1247
 Frc consts  --      1.3315                 0.0358                 0.1249
 IR Inten    --    262.1828                 2.6601                 1.5777

                      4                      5                      6
                      A                      A                      A
 Frequencies --    321.9370               401.7070               448.4816
 Red. masses --      5.4392                 3.3215                 5.6638
 Frc consts  --      0.3321                 0.3158                 0.6712
 IR Inten    --     11.6012                 3.9072                27.3346

                      7                      8                      9
                      A                      A                      A
 Frequencies --    503.7128               532.7267               563.4708
 Red. masses --      1.4942                 1.8210                 5.6721
 Frc consts  --      0.2234                 0.3045                 1.0611
 IR Inten    --      5.4239                13.1620                18.2713

                     10                     11                     12
                      A                      A                      A
 Frequencies --    598.2405               639.6799               689.1217
 Red. masses --      1.3394                 4.3125                 7.0615
 Frc consts  --      0.2824                 1.0397                 1.9758
 IR Inten    --     50.8211                12.7225               115.4305

                     13                     14                     15
                      A                      A                      A
 Frequencies --    738.2390               775.7380               846.1229
 Red. masses --      2.3359                 1.7451                 5.6046
 Frc consts  --      0.7501                 0.6187                 2.3641
 IR Inten    --     12.9196                50.5486                26.8329

                     16                     17                     18
                      A                      A                      A
 Frequencies --    860.2845               946.3425               986.4002
 Red. masses --      1.4459                 1.3544                 3.5135
 Frc consts  --      0.6305                 0.7147                 2.0142
 IR Inten    --      4.2394                 1.5460               610.0363

                     19                     20                     21
                      A                      A                      A
 Frequencies --    987.9551              1036.1632              1125.2241
 Red. masses --      1.3099                 2.3689                 1.5379
 Frc consts  --      0.7533                 1.4985                 1.1473
 IR Inten    --     18.5129                 2.1622               127.9374

                     22                     23                     24
                      A                      A                      A
 Frequencies --   1164.3277              1239.0393              1270.0807
 Red. masses --      1.0916                 1.2465                 2.7949
 Frc consts  --      0.8719                 1.1275                 2.6563
 IR Inten    --     20.1947              4175.9931               525.6647

                     25                     26                     27
                      A                      A                      A
 Frequencies --   1310.9452              1349.8992              1376.4511
 Red. masses --      1.7732                 1.1312                 2.2710
 Frc consts  --      1.7955                 1.2145                 2.5350
 IR Inten    --    469.1364                52.0602                20.0257

                     28                     29                     30
                      A                      A                      A
 Frequencies --   1415.9671              1469.8928              1513.7657
 Red. masses --      1.0802                 2.2983                 2.8249
 Frc consts  --      1.2761                 2.9257                 3.8139
 IR Inten    --     77.3111                39.3590               138.9040

                     31                     32                     33
                      A                      A                      A
 Frequencies --   1546.3868              1630.8855              1642.8691
 Red. masses --      3.5243                 1.3343                 5.0002
 Frc consts  --      4.9655                 2.0910                 7.9514
 IR Inten    --     47.8789               202.2840               157.0147

                     34                     35                     36
                      A                      A                      A
 Frequencies --   1889.0770              3137.8293              3147.6998
 Red. masses --      1.0610                 1.0881                 1.0902
 Frc consts  --      2.2309                 6.3122                 6.3641
 IR Inten    --      7.0882                 8.1231                 8.8237

                     37                     38                     39
                      A                      A                      A
 Frequencies --   3176.5987              3181.6342              3755.4693
 Red. masses --      1.0924                 1.0961                 1.0658
 Frc consts  --      6.4948                 6.5374                 8.8565
 IR Inten    --      6.2717                 6.2856                24.9635

 - Thermochemistry -
 -------------------
 Temperature   298.150 Kelvin.  Pressure   1.00000 Atm.
 Atom     1 has atomic number  8 and mass  15.99491

 Molecular mass:   113.04768 amu.
 Principal axes and moments of inertia in atomic units:
                           1         2         3
     Eigenvalues --   441.485871139.811761576.77123
           X            0.99988  -0.01415   0.00691
           Y            0.01418   0.99989  -0.00445
           Z           -0.00685   0.00455   0.99997
 This molecule is an asymmetric top.
 Rotational symmetry number  1.
 Warning -- assumption of classical behavior for rotation
           may cause significant error
 Rotational temperatures (Kelvin)      0.19619     0.07599     0.05493
 Rotational constants (GHZ):           4.08788     1.58337     1.14458
    1 imaginary frequencies ignored.
 Zero-point vibrational energy     290282.3 (Joules/Mol)
                                   69.37913 (Kcal/Mol)
 Warning -- explicit consideration of   9 degrees of freedom as
           vibrations may cause significant error
 Vibrational temperatures:    154.86   292.67   463.20   577.97   645.26
          (Kelvin)            724.73   766.47   810.71   860.73   920.36
                              991.49  1062.16  1116.11  1217.38  1237.76
                             1361.57  1419.21  1421.45  1490.81  1618.94
                             1675.21  1782.70  1827.36  1886.16  1942.20
                             1980.40  2037.26  2114.85  2177.97  2224.90
                             2346.48  2363.72  2717.96  4514.63  4528.83
                             4570.41  4577.66  5403.28

 Zero-point correction=                           0.110563 (Hartree/Particle)
 Thermal correction to Energy=                    0.117250
 Thermal correction to Enthalpy=                  0.118194
 Thermal correction to Gibbs Free Energy=         0.079637
 Sum of electronic and zero-point Energies=           -400.060668
 Sum of electronic and thermal Energies=              -400.053980
 Sum of electronic and thermal Enthalpies=            -400.053036
 Sum of electronic and thermal Free Energies=         -400.091593

                     E (Thermal)             CV                S
                      KCal/Mol        Cal/Mol-Kelvin    Cal/Mol-Kelvin
 Total                   73.576             26.356             81.149
 Electronic               0.000              0.000              0.000
 Translational            0.889              2.981             40.084
 Rotational               0.889              2.981             28.164
 Vibrational             71.798             20.395             12.902
 Vibration     1          0.606              1.943              3.311
 Vibration     2          0.639              1.835              2.102
 Vibration     3          0.707              1.631              1.300
 Vibration     4          0.767              1.466              0.956
 Vibration     5          0.807              1.364              0.800
 Vibration     6          0.859              1.242              0.649
 Vibration     7          0.888              1.178              0.581
 Vibration     8          0.919              1.110              0.517
 Vibration     9          0.956              1.036              0.453

 Normal termination of Gaussian 09 at Sat Aug 28 14:06:07 2021.
