 Gaussian 09, Revision E.01,
 Gaussian 09:  EM64L-G09RevE.01 30-Nov-2015

 ----------------------------------------------------------------------
 #p opt=(calcfc,qst3,maxcycle=200,cartesian) freq pbepbe/gen geom=conne
 ctivity
 ----------------------------------------------------------------------

 --------------------------
 HY_H2O_PBEPBE_PC2_OPT_FREQ
 --------------------------
 Symbolic Z-matrix:
 Charge =  0 Multiplicity = 1

 --------------------------
 PY_H2O_PBEPBE_PC2_OPT_FREQ
 --------------------------
 Symbolic Z-matrix:
 Charge =  0 Multiplicity = 1

 --------------
 TST_H2O_PBEPBE
 --------------
 Symbolic Z-matrix:
 Charge =  0 Multiplicity = 1

 SCF Done:  E(RPBE-PBE) =  -399.643390642     A.U. after   16 cycles
 SCF Done:  E(RPBE-PBE) =  -399.642921311     A.U. after   13 cycles
 SCF Done:  E(RPBE-PBE) =  -399.642008297     A.U. after   13 cycles
 SCF Done:  E(RPBE-PBE) =  -399.640946353     A.U. after   13 cycles
 SCF Done:  E(RPBE-PBE) =  -399.639621309     A.U. after   13 cycles
 SCF Done:  E(RPBE-PBE) =  -399.643344831     A.U. after   13 cycles
 SCF Done:  E(RPBE-PBE) =  -399.643854501     A.U. after   14 cycles
 SCF Done:  E(RPBE-PBE) =  -399.652620900     A.U. after   13 cycles
 SCF Done:  E(RPBE-PBE) =  -399.650555406     A.U. after   13 cycles
 SCF Done:  E(RPBE-PBE) =  -399.656298641     A.U. after   13 cycles
 SCF Done:  E(RPBE-PBE) =  -399.660022592     A.U. after   13 cycles
 SCF Done:  E(RPBE-PBE) =  -399.659432014     A.U. after   12 cycles
 SCF Done:  E(RPBE-PBE) =  -399.659933985     A.U. after   12 cycles
 SCF Done:  E(RPBE-PBE) =  -399.659995393     A.U. after   11 cycles
 SCF Done:  E(RPBE-PBE) =  -399.660007051     A.U. after    9 cycles
 SCF Done:  E(RPBE-PBE) =  -399.660010714     A.U. after    8 cycles
 SCF Done:  E(RPBE-PBE) =  -399.660015824     A.U. after    9 cycles
 SCF Done:  E(RPBE-PBE) =  -399.660017749     A.U. after    8 cycles
 SCF Done:  E(RPBE-PBE) =  -399.660018426     A.U. after    8 cycles
 Optimization completed.
    -- Stationary point found.
 Normal termination of Gaussian 09 at Sun Aug 29 00:08:08 2021.

 -------------------------------------------------------------------
 #P Geom=AllCheck Guess=TCheck SCRF=Check GenChk RPBEPBE/ChkBas Freq
 -------------------------------------------------------------------

 Structure from the checkpoint file:  "TST_H2O_PBEPBE.chk"
 --------------------------
 HY_H2O_PBEPBE_PC2_OPT_FREQ
 --------------------------
 Charge =  0 Multiplicity = 1

                         Standard orientation:
 ---------------------------------------------------------------------
 Center     Atomic      Atomic             Coordinates (Angstroms)
 Number     Number       Type             X           Y           Z
 ---------------------------------------------------------------------
      1          8           0        1.385714    1.335613   -0.012642
      2          7           0        0.316287   -0.689746   -0.013459
      3          6           0        0.263152    0.681552   -0.004616
      4          6           0       -1.007745    1.313186    0.011070
      5          6           0       -0.802606   -1.439028   -0.009232
      6          6           0       -2.149394    0.535908    0.015105
      7          6           0       -2.061699   -0.870334    0.004869
      8          1           0        2.243994    0.486420   -0.024072
      9          1           0       -1.044353    2.401029    0.017264
     10          1           0       -0.653594   -2.519819   -0.020978
     11          1           0       -3.128552    1.017300    0.025397
     12          1           0       -2.950440   -1.497648    0.005932
     13          8           0        2.750388   -0.653613   -0.079999
     14          1           0        3.234236   -0.851059    0.736743
     15          1           0        1.545632   -0.991706   -0.008115
 ---------------------------------------------------------------------

 SCF Done:  E(RPBE-PBE) =  -399.660018426     A.U. after    1 cycles

 The electronic state is 1-A.
 Alpha  occ. eigenvalues --  -18.74344 -18.73377 -14.01927  -9.98771  -9.94465
 Alpha  occ. eigenvalues --   -9.91821  -9.90287  -9.90273  -0.97007  -0.89169
 Alpha  occ. eigenvalues --   -0.87139  -0.74649  -0.69434  -0.59920  -0.57421
 Alpha  occ. eigenvalues --   -0.50312  -0.49086  -0.45130  -0.43068  -0.41322
 Alpha  occ. eigenvalues --   -0.40259  -0.38767  -0.35410  -0.34894  -0.31824
 Alpha  occ. eigenvalues --   -0.31053  -0.28083  -0.26038  -0.23674  -0.21316
 Alpha virt. eigenvalues --   -0.08132  -0.04498  -0.00470   0.00895   0.02381
 Alpha virt. eigenvalues --    0.04255   0.05953   0.07488   0.08684   0.10391
 Alpha virt. eigenvalues --    0.12092   0.13032   0.14032   0.15763   0.16093

 Mulliken charges:
               1
     1  O   -0.463521
     2  N   -0.343062
     3  C    0.438390
     4  C   -0.110476
     5  C    0.131747
     6  C    0.025804
     7  C   -0.126894
     8  H    0.263368
     9  H    0.058868
    10  H    0.066763
    11  H    0.062730
    12  H    0.051461
    13  O   -0.515267
    14  H    0.211395
    15  H    0.248694
 Sum of Mulliken charges =  -0.00000

 Dipole moment (field-independent basis, Debye):
    X=             -2.5972    Y=             -1.5755    Z=              1.3757  Tot=              3.3348
 Quadrupole moment (field-independent basis, Debye-Ang):
   XX=            -45.0742   YY=            -45.4109   ZZ=            -49.3403
   XY=             -2.4052   XZ=              4.9395   YZ=             -1.3165

  Exact polarizability: 109.878   2.299  87.591   1.172  -0.284  44.976
 Approx polarizability: 206.405  16.334 183.814   1.113  -0.367  76.121

 ******    1 imaginary frequencies (negative Signs) ******

                      1                      2                      3
                      A                      A                      A
 Frequencies --  -1317.3838               105.7732               199.0981
 Red. masses --      1.0600                 5.2430                 5.1087
 Frc consts  --      1.0839                 0.0346                 0.1193
 IR Inten    --    229.1787                 2.9053                 1.5897

                      4                      5                      6
                      A                      A                      A
 Frequencies --    323.1947               396.9949               447.4308
 Red. masses --      5.4344                 3.2978                 5.0570
 Frc consts  --      0.3344                 0.3062                 0.5965
 IR Inten    --      6.8601                 3.9593                25.9298

                      7                      8                      9
                      A                      A                      A
 Frequencies --    497.7164               526.0609               561.2964
 Red. masses --      1.5335                 1.7939                 5.2074
 Frc consts  --      0.2238                 0.2925                 0.9666
 IR Inten    --     12.6915                20.0264                17.0101

                     10                     11                     12
                      A                      A                      A
 Frequencies --    591.5286               636.8683               692.8035
 Red. masses --      1.3255                 4.8199                 7.4460
 Frc consts  --      0.2733                 1.1518                 2.1057
 IR Inten    --     51.8085                10.8670                42.4064

                     13                     14                     15
                      A                      A                      A
 Frequencies --    725.9847               762.2268               841.2067
 Red. masses --      1.8853                 2.0172                 1.5110
 Frc consts  --      0.5855                 0.6905                 0.6300
 IR Inten    --     22.9219                39.6536                 5.0027

                     16                     17                     18
                      A                      A                      A
 Frequencies --    843.8586               923.8951               963.7101
 Red. masses --      5.6640                 1.3686                 1.2914
 Frc consts  --      2.3764                 0.6883                 0.7067
 IR Inten    --      8.5776                 1.5558                 0.0895

                     19                     20                     21
                      A                      A                      A
 Frequencies --    984.0150              1028.3784              1109.4826
 Red. masses --      4.1826                 2.2447                 1.4585
 Frc consts  --      2.3862                 1.3987                 1.0578
 IR Inten    --    274.8891                 3.9161                30.4296

                     22                     23                     24
                      A                      A                      A
 Frequencies --   1140.2095              1252.5154              1294.1015
 Red. masses --      1.0851                 1.9160                 1.9007
 Frc consts  --      0.8312                 1.7710                 1.8754
 IR Inten    --      9.9841                82.8232               294.0068

                     25                     26                     27
                      A                      A                      A
 Frequencies --   1327.8218              1350.2901              1363.2681
 Red. masses --      1.3180                 1.3716                 1.6620
 Frc consts  --      1.3691                 1.4734                 1.8199
 IR Inten    --   2633.7507              1139.6882              1197.0651

                     28                     29                     30
                      A                      A                      A
 Frequencies --   1408.3428              1448.4165              1509.4743
 Red. masses --      1.0823                 2.6384                 2.8590
 Frc consts  --      1.2648                 3.2612                 3.8381
 IR Inten    --    194.6864                52.8953               171.1093

                     31                     32                     33
                      A                      A                      A
 Frequencies --   1532.9258              1618.0532              1633.8888
 Red. masses --      4.0618                 1.3408                 5.2377
 Frc consts  --      5.6235                 2.0682                 8.2383
 IR Inten    --     32.7227               164.1072               200.2163

                     34                     35                     36
                      A                      A                      A
 Frequencies --   1875.4860              3106.9277              3110.9206
 Red. masses --      1.0574                 1.0877                 1.0908
 Frc consts  --      2.1915                 6.1864                 6.2198
 IR Inten    --      2.0433                 5.6313                 8.7843

                     37                     38                     39
                      A                      A                      A
 Frequencies --   3144.2798              3149.7264              3746.5635
 Red. masses --      1.0925                 1.0959                 1.0657
 Frc consts  --      6.3637                 6.4057                 8.8137
 IR Inten    --      3.2913                 4.0292                30.5974

 - Thermochemistry -
 -------------------
 Temperature   298.150 Kelvin.  Pressure   1.00000 Atm.
 Atom     1 has atomic number  8 and mass  15.99491

 Molecular mass:   113.04768 amu.
 Principal axes and moments of inertia in atomic units:
                           1         2         3
     Eigenvalues --   441.824781139.833241577.08613
           X            0.99988  -0.01419   0.00693
           Y            0.01422   0.99989  -0.00447
           Z           -0.00687   0.00456   0.99997
 This molecule is an asymmetric top.
 Rotational symmetry number  1.
 Warning -- assumption of classical behavior for rotation
           may cause significant error
 Rotational temperatures (Kelvin)      0.19604     0.07599     0.05492
 Rotational constants (GHZ):           4.08474     1.58334     1.14435
    1 imaginary frequencies ignored.
 Zero-point vibrational energy     288148.9 (Joules/Mol)
                                   68.86924 (Kcal/Mol)
 Warning -- explicit consideration of   9 degrees of freedom as
           vibrations may cause significant error
 Vibrational temperatures:    152.18   286.46   465.00   571.19   643.75
          (Kelvin)            716.10   756.88   807.58   851.08   916.31
                              996.79  1044.53  1096.67  1210.31  1214.12
                             1329.28  1386.56  1415.78  1479.61  1596.30
                             1640.51  1802.09  1861.92  1910.44  1942.76
                             1961.44  2026.29  2083.95  2171.79  2205.54
                             2328.01  2350.80  2698.40  4470.17  4475.92
                             4523.91  4531.75  5390.46

 Zero-point correction=                           0.109750 (Hartree/Particle)
 Thermal correction to Energy=                    0.116491
 Thermal correction to Enthalpy=                  0.117435
 Thermal correction to Gibbs Free Energy=         0.078782
 Sum of electronic and zero-point Energies=           -399.550268
 Sum of electronic and thermal Energies=              -399.543527
 Sum of electronic and thermal Enthalpies=            -399.542583
 Sum of electronic and thermal Free Energies=         -399.581237

                     E (Thermal)             CV                S
                      KCal/Mol        Cal/Mol-Kelvin    Cal/Mol-Kelvin
 Total                   73.099             26.591             81.354
 Electronic               0.000              0.000              0.000
 Translational            0.889              2.981             40.084
 Rotational               0.889              2.981             28.165
 Vibrational             71.322             20.629             13.106
 Vibration     1          0.605              1.945              3.345
 Vibration     2          0.637              1.841              2.141
 Vibration     3          0.708              1.629              1.294
 Vibration     4          0.763              1.477              0.974
 Vibration     5          0.807              1.367              0.804
 Vibration     6          0.853              1.255              0.664
 Vibration     7          0.881              1.192              0.596
 Vibration     8          0.917              1.115              0.521
 Vibration     9          0.949              1.050              0.464

 Optimization completed.
    -- Stationary point found.
 Normal termination of Gaussian 09 at Sun Aug 29 00:09:11 2021.
