 Gaussian 09, Revision E.01,
 Gaussian 09:  EM64L-G09RevE.01 30-Nov-2015

 ------------------------------------------------------------
 #p gen geom=checkpoint b3lyp iop(5/33=1) nosymm extraoverlay
 ------------------------------------------------------------

 -----------
 HY_XYG3_PC2
 -----------
 Structure from the checkpoint file:  "./tmp/HY_XYG3_PC2.chk"
 Charge =  0 Multiplicity = 1

                          Input orientation:
 ---------------------------------------------------------------------
 Center     Atomic      Atomic             Coordinates (Angstroms)
 Number     Number       Type             X           Y           Z
 ---------------------------------------------------------------------
      1          8           0        0.005604    2.253274   -0.000000
      2          7           0       -1.175803    0.295643   -0.000000
      3          6           0        0.000050    0.901238   -0.000000
      4          6           0        1.223636    0.226179    0.000000
      5          6           0       -1.189665   -1.041517   -0.000000
      6          6           0        1.188874   -1.154503    0.000000
      7          6           0       -0.040702   -1.812759    0.000000
      8          1           0       -0.918454    2.534812   -0.000000
      9          1           0        2.148813    0.782625    0.000000
     10          1           0       -2.169120   -1.504330   -0.000000
     11          1           0        2.112331   -1.717810    0.000000
     12          1           0       -0.102782   -2.890952    0.000000
 ---------------------------------------------------------------------

 SCF Done:  E(RB3LYP) =  -323.659373396     A.U. after   14 cycles

 Alpha  occ. eigenvalues --  -19.16215 -14.31753 -10.27392 -10.21774 -10.20050
 Alpha  occ. eigenvalues --  -10.18738 -10.18293  -1.08444  -0.94803  -0.81594
 Alpha  occ. eigenvalues --   -0.76524  -0.65598  -0.63776  -0.56287  -0.52455
 Alpha  occ. eigenvalues --   -0.49128  -0.45526  -0.44576  -0.42274  -0.40739
 Alpha  occ. eigenvalues --   -0.37958  -0.36395  -0.29995  -0.28248  -0.24970
 Alpha virt. eigenvalues --   -0.03960  -0.01309   0.01840   0.02714   0.04191
 Alpha virt. eigenvalues --    0.06234   0.07977   0.12748   0.13400   0.15306
 Alpha virt. eigenvalues --    0.15493   0.16379   0.18206   0.18986   0.19737

 Mulliken charges:
               1
     1  O   -0.389792
     2  N   -0.412944
     3  C    0.492129
     4  C   -0.133496
     5  C    0.127052
     6  C    0.043675
     7  C   -0.133120
     8  H    0.210247
     9  H    0.048216
    10  H    0.055493
    11  H    0.052096
    12  H    0.040445
 Sum of Mulliken charges =  -0.00000

 Dipole moment (field-independent basis, Debye):
    X=              0.4984    Y=             -1.2452    Z=              0.0000  Tot=              1.3412
 Quadrupole moment (field-independent basis, Debye-Ang):
   XX=            -38.1364   YY=            -37.0785   ZZ=            -43.2159
   XY=             -2.0384   XZ=             -0.0000   YZ=              0.0000

 E2(B3LYP) =    -0.1725064208D+01 E(B3LYP) =    -0.32538443760338D+03
 Normal termination of Gaussian 09 at Sun Aug 29 12:35:35 2021.
