 Gaussian 09, Revision E.01,
 Gaussian 09:  EM64L-G09RevE.01 30-Nov-2015

 ---------------------
 #p G3 geom=checkpoint
 ---------------------

 ------
 4PY_G3
 ------
 Structure from the checkpoint file:  "4PY_G3.chk"
 Charge =  0 Multiplicity = 1

 SCF Done:  E(RHF) =  -321.548748213     A.U. after   15 cycles
 SCF Done:  E(RHF) =  -321.550242103     A.U. after   11 cycles
 SCF Done:  E(RHF) =  -321.550306457     A.U. after   11 cycles
 SCF Done:  E(RHF) =  -321.550279326     A.U. after   10 cycles
 SCF Done:  E(RHF) =  -321.550314136     A.U. after   10 cycles
 Optimization completed.
    -- Stationary point found.
 Normal termination of Gaussian 09 at Sun Sep  5 14:59:10 2021.

 -------------------------------------------------------
 #P Geom=AllCheck Guess=TCheck SCRF=Check HF/GTBas1 Freq
 -------------------------------------------------------

 Structure from the checkpoint file:  "4PY_G3.chk"
 ------
 4PY_G3
 ------
 Charge =  0 Multiplicity = 1

 SCF Done:  E(RHF) =  -321.550314136     A.U. after    1 cycles

  Exact polarizability:  22.273   0.000  80.362  -0.000  -0.000  54.750
 Approx polarizability:  25.139   0.000  77.315   0.000  -0.000  47.863

                      1                      2                      3
                     A'                     A'                     A"
 Frequencies --    178.2260               424.4981               459.9300
 Red. masses --      5.2188                 1.7567                 3.2382
 Frc consts  --      0.0977                 0.1865                 0.4036
 IR Inten    --      2.5275               132.2542                 0.0000
 Raman Activ --      1.2813                 1.7137                 0.0267

                      4                      5                      6
                     A"                     A'                     A'
 Frequencies --    496.1686               541.3175               555.2925
 Red. masses --      5.8471                 1.5027                 8.3298
 Frc consts  --      0.8481                 0.2594                 1.5133
 IR Inten    --      9.7990                21.5513                 9.7466
 Raman Activ --      0.0614                 0.0309                 3.1579

                      7                      8                      9
                     A"                     A'                     A'
 Frequencies --    672.1127               799.3581               865.8049
 Red. masses --      6.6877                 2.3710                 5.1070
 Frc consts  --      1.7800                 0.8926                 2.2556
 IR Inten    --      0.8673                 2.5474                 7.7110
 Raman Activ --      3.6636                 4.2100                12.2871

                     10                     11                     12
                     A"                     A'                     A'
 Frequencies --    888.7084               944.3985              1068.8262
 Red. masses --      1.2368                 2.2496                 3.5948
 Frc consts  --      0.5755                 1.1821                 2.4196
 IR Inten    --      0.0000               110.7561                76.5493
 Raman Activ --      7.3839                 2.0362                 8.1741

                     13                     14                     15
                     A'                     A"                     A'
 Frequencies --   1095.8104              1099.7435              1102.9528
 Red. masses --      1.2529                 1.3100                 2.9761
 Frc consts  --      0.8864                 0.9335                 2.1331
 IR Inten    --      0.5769                 0.0000                 2.4737
 Raman Activ --      0.6680                 1.1237                10.6453

                     16                     17                     18
                     A"                     A'                     A"
 Frequencies --   1160.8669              1304.3399              1343.8519
 Red. masses --      1.9603                 1.1972                 1.4875
 Frc consts  --      1.5565                 1.2001                 1.5828
 IR Inten    --      0.0510                29.8734                 0.6057
 Raman Activ --      1.9405                13.0477                 0.2276

                     19                     20                     21
                     A"                     A"                     A'
 Frequencies --   1373.9302              1551.7086              1568.2059
 Red. masses --      1.4682                 1.7537                 1.7385
 Frc consts  --      1.6330                 2.4879                 2.5190
 IR Inten    --     28.9647                 0.0953                 0.4573
 Raman Activ --      1.4487                 0.3971                 5.3284

                     22                     23                     24
                     A"                     A"                     A'
 Frequencies --   1678.7395              1788.3652              1844.5278
 Red. masses --      3.6245                 2.9107                 5.1520
 Frc consts  --      6.0182                 5.4847                10.3274
 IR Inten    --    175.7076                 9.6617                76.2976
 Raman Activ --      1.4522                 2.6881                24.9276

                     25                     26                     27
                     A'                     A"                     A'
 Frequencies --   1933.0006              3396.6054              3396.6291
 Red. masses --     10.0901                 1.0900                 1.0904
 Frc consts  --     22.2132                 7.4088                 7.4119
 IR Inten    --    736.3911                 4.4425                 7.6981
 Raman Activ --     56.3074               126.3161                 5.6177

                     28                     29                     30
                     A"                     A'                     A'
 Frequencies --   3416.3603              3417.8844              3907.6463
 Red. masses --      1.0994                 1.1002                 1.0802
 Frc consts  --      7.5603                 7.5722                 9.7184
 IR Inten    --     16.0871                 0.7857               122.7797
 Raman Activ --      0.2642               238.8606                95.5022

 - Thermochemistry -
 -------------------
 Temperature   298.150 Kelvin.  Pressure   1.00000 Atm.
 Atom     1 has atomic number  6 and mass  12.00000

 Molecular mass:    95.03711 amu.
 Principal axes and moments of inertia in atomic units:
                           1         2         3
     Eigenvalues --   314.01269 653.28496 967.29765
           X            0.00000   0.00000   1.00000
           Y            1.00000   0.00000  -0.00000
           Z            0.00000   1.00000   0.00000
 This molecule is an asymmetric top.
 Rotational symmetry number  1.
 Rotational temperatures (Kelvin)      0.27583     0.13258     0.08954
 Rotational constants (GHZ):           5.74735     2.76256     1.86576
 Zero-point vibrational energy     264828.2 (Joules/Mol)
                                   63.29545 (Kcal/Mol)
 Warning -- explicit consideration of   6 degrees of freedom as
           vibrations may cause significant error
 Vibrational temperatures:    256.43   610.76   661.74   713.88   778.83
          (Kelvin)            798.94   967.02  1150.10  1245.70  1278.65
                             1358.78  1537.80  1576.62  1582.28  1586.90
                             1670.23  1876.65  1933.50  1976.78  2232.56
                             2256.30  2415.33  2573.06  2653.86  2781.15
                             4886.95  4886.99  4915.37  4917.57  5622.22

 Zero-point correction=                           0.100868 (Hartree/Particle)
 Thermal correction to Energy=                    0.105977
 Thermal correction to Enthalpy=                  0.106922
 Thermal correction to Gibbs Free Energy=         0.072006
 Sum of electronic and zero-point Energies=           -321.449446
 Sum of electronic and thermal Energies=              -321.444337
 Sum of electronic and thermal Enthalpies=            -321.443393
 Sum of electronic and thermal Free Energies=         -321.478308

                     E (Thermal)             CV                S
                      KCal/Mol        Cal/Mol-Kelvin    Cal/Mol-Kelvin
 Total                   66.502             19.168             73.486
 Electronic               0.000              0.000              0.000
 Translational            0.889              2.981             39.566
 Rotational               0.889              2.981             26.787
 Vibrational             64.724             13.207              7.133
 Vibration     1          0.629              1.869              2.347
 Vibration     2          0.786              1.417              0.877
 Vibration     3          0.818              1.339              0.766
 Vibration     4          0.852              1.259              0.668
 Vibration     5          0.896              1.159              0.562
 Vibration     6          0.911              1.128              0.533

 Optimization completed.
    -- Stationary point found.
 Normal termination of Gaussian 09 at Sun Sep  5 14:59:16 2021.

 ------------------------------------------------------------------
 #P Geom=AllCheck Guess=TCheck SCRF=Check MP2(Full)/GTBas1 Opt=RCFC
 ------------------------------------------------------------------

 Structure from the checkpoint file:  "4PY_G3.chk"
 ------
 4PY_G3
 ------
 Charge =  0 Multiplicity = 1

 SCF Done:  E(RHF) =  -321.550314136     A.U. after    1 cycles
 E2 =    -0.9888572816D+00 EUMP2 =    -0.32253917141804D+03
 SCF Done:  E(RHF) =  -321.546985520     A.U. after   12 cycles
 E2 =    -0.9959968952D+00 EUMP2 =    -0.32254298241535D+03
 SCF Done:  E(RHF) =  -321.546182647     A.U. after   10 cycles
 E2 =    -0.9968423282D+00 EUMP2 =    -0.32254302497550D+03
 Optimization completed.
    -- Stationary point found.
 Normal termination of Gaussian 09 at Sun Sep  5 14:59:28 2021.

 ------------------------------------------------------------------
 #P Geom=AllCheck Guess=TCheck SCRF=Check QCISD(T,E4T,FrzG3)/GTBas1
 ------------------------------------------------------------------

 Structure from the checkpoint file:  "4PY_G3.chk"
 ------
 4PY_G3
 ------
 Charge =  0 Multiplicity = 1

 SCF Done:  E(RHF) =  -321.546182647     A.U. after    1 cycles
 E2 =    -0.9655451366D+00 EUMP2 =    -0.32251172778388D+03
 Normal termination of Gaussian 09 at Sun Sep  5 15:01:29 2021.

 ---------------------------------------------------------
 #P Geom=AllCheck Guess=TCheck SCRF=Check MP4=FrzG3/GTBas2
 ---------------------------------------------------------

 Structure from the checkpoint file:  "4PY_G3.chk"
 ------
 4PY_G3
 ------
 Charge =  0 Multiplicity = 1

 SCF Done:  E(RHF) =  -321.558203651     A.U. after   14 cycles
 E2 =    -0.9777923752D+00 EUMP2 =    -0.32253599602626D+03
 Normal termination of Gaussian 09 at Sun Sep  5 15:03:10 2021.

 ---------------------------------------------------------
 #P Geom=AllCheck Guess=TCheck SCRF=Check MP4=FrzG3/GTBas3
 ---------------------------------------------------------

 Structure from the checkpoint file:  "4PY_G3.chk"
 ------
 4PY_G3
 ------
 Charge =  0 Multiplicity = 1

 SCF Done:  E(RHF) =  -321.579195760     A.U. after   12 cycles
 E2 =    -0.1156757410D+01 EUMP2 =    -0.32273595317000D+03
 Normal termination of Gaussian 09 at Sun Sep  5 15:14:45 2021.

                         Standard orientation:
 ---------------------------------------------------------------------
 Center     Atomic      Atomic             Coordinates (Angstroms)
 Number     Number       Type             X           Y           Z
 ---------------------------------------------------------------------
      1          6           0       -0.000002    1.051369    1.190487
      2          6           0       -0.000002   -0.308020    1.221081
      3          6           0        0.000001   -1.107577    0.000000
      4          6           0       -0.000002   -0.308020   -1.221081
      5          6           0       -0.000002    1.051369   -1.190487
      6          7           0       -0.000011    1.729727   -0.000000
      7          1           0        0.000001    1.666606    2.084908
      8          1           0       -0.000001   -0.827614    2.173422
      9          1           0       -0.000001   -0.827614   -2.173422
     10          1           0        0.000001    1.666606   -2.084908
     11          8           0        0.000010   -2.350223    0.000000
     12          1           0        0.000049    2.740990   -0.000000
 ---------------------------------------------------------------------

 SCF Done:  E(RHF) =  -321.656990323     A.U. after   14 cycles
 E2 =    -0.1512346868D+01 EUMP2 =    -0.32316933719120D+03

 The electronic state is 1-A'.
 Alpha  occ. eigenvalues --  -20.49897 -15.64026 -11.31307 -11.31248 -11.31246
 Alpha  occ. eigenvalues --  -11.23479 -11.23478  -1.33590  -1.31424  -1.06840
 Alpha  occ. eigenvalues --   -1.06458  -0.87872  -0.85638  -0.78502  -0.69487
 Alpha  occ. eigenvalues --   -0.67203  -0.63211  -0.61948  -0.60224  -0.56106
 Alpha  occ. eigenvalues --   -0.54363  -0.50668  -0.39770  -0.38818  -0.32643
 Alpha virt. eigenvalues --    0.02075   0.03852   0.05447   0.06839   0.07989
 Alpha virt. eigenvalues --    0.08712   0.10323   0.10973   0.12228   0.13230
 Alpha virt. eigenvalues --    0.13271   0.14029   0.15010   0.15116   0.16521

 Mulliken charges:
               1
     1  C   -0.156372
     2  C    0.156687
     3  C   -0.219669
     4  C    0.156687
     5  C   -0.156372
     6  N   -0.216225
     7  H    0.173194
     8  H    0.183481
     9  H    0.183481
    10  H    0.173194
    11  O   -0.506893
    12  H    0.228806
 Sum of Mulliken charges =  -0.00000

 Dipole moment (field-independent basis, Debye):
    X=              0.0001    Y=              7.6721    Z=              0.0000  Tot=              7.6721
 Quadrupole moment (field-independent basis, Debye-Ang):
   XX=            -44.0872   YY=            -43.8151   ZZ=            -34.2118
   XY=              0.0004   XZ=             -0.0000   YZ=             -0.0000

 Normal termination of Gaussian 09 at Sun Sep  5 15:16:17 2021.
