 Gaussian 09, Revision E.01,
 Gaussian 09:  EM64L-G09RevE.01 30-Nov-2015

 -----------------------------------------------
 #p opt=(calcfc,qst3,MaxCycle=200) freq wB97/gen
 -----------------------------------------------

 --------------------
 HY_wB97_PC2_OPT_FREQ
 --------------------
 Symbolic Z-matrix:
 Charge =  0 Multiplicity = 1

 --------------------
 PY_wB97_PC2_OPT_FREQ
 --------------------
 Symbolic Z-matrix:
 Charge =  0 Multiplicity = 1

 ------------
 TST_GAS_wB97
 ------------
 Symbolic Z-matrix:
 Charge =  0 Multiplicity = 1

 SCF Done:  E(RwB97) =  -323.496406134     A.U. after   16 cycles
 SCF Done:  E(RwB97) =  -323.510453993     A.U. after   14 cycles
 SCF Done:  E(RwB97) =  -323.523979200     A.U. after   15 cycles
 SCF Done:  E(RwB97) =  -323.526426773     A.U. after   14 cycles
 SCF Done:  E(RwB97) =  -323.527420893     A.U. after   14 cycles
 SCF Done:  E(RwB97) =  -323.524027033     A.U. after   15 cycles
 SCF Done:  E(RwB97) =  -323.522479560     A.U. after   15 cycles
 SCF Done:  E(RwB97) =  -323.522019600     A.U. after   14 cycles
 SCF Done:  E(RwB97) =  -323.522556787     A.U. after   13 cycles
 SCF Done:  E(RwB97) =  -323.522569924     A.U. after   12 cycles
 SCF Done:  E(RwB97) =  -323.522596753     A.U. after   12 cycles
 SCF Done:  E(RwB97) =  -323.522576218     A.U. after   12 cycles
 SCF Done:  E(RwB97) =  -323.522597733     A.U. after   12 cycles
 Optimization completed.
    -- Stationary point found.
 Normal termination of Gaussian 09 at Sat Aug 28 00:55:44 2021.

 -----------------------------------------------------------------
 #P Geom=AllCheck Guess=TCheck SCRF=Check GenChk RwB97/ChkBas Freq
 -----------------------------------------------------------------

 Structure from the checkpoint file:  "TST_GAS_wB97.chk"
 --------------------
 HY_wB97_PC2_OPT_FREQ
 --------------------
 Charge =  0 Multiplicity = 1

                         Standard orientation:
 ---------------------------------------------------------------------
 Center     Atomic      Atomic             Coordinates (Angstroms)
 Number     Number       Type             X           Y           Z
 ---------------------------------------------------------------------
      1          8           0       -2.224473    0.033647    0.000130
      2          7           0       -0.424460   -1.043995   -0.000094
      3          6           0       -0.951405    0.200433   -0.000067
      4          6           0       -0.111842    1.330987   -0.000071
      5          6           0        0.890586   -1.279341   -0.000007
      6          6           0        1.241190    1.086267    0.000003
      7          6           0        1.767534   -0.220782    0.000065
      8          1           0       -1.696216   -1.213463   -0.000165
      9          1           0       -0.528181    2.328483   -0.000043
     10          1           0        1.212102   -2.314127    0.000091
     11          1           0        1.928368    1.925973    0.000060
     12          1           0        2.834555   -0.393456    0.000140
 ---------------------------------------------------------------------

 SCF Done:  E(RwB97) =  -323.522597733     A.U. after    1 cycles

 The electronic state is 1-A.
 Alpha  occ. eigenvalues --  -18.97672 -14.26626 -10.23755 -10.20130 -10.17457
 Alpha  occ. eigenvalues --  -10.14996 -10.14672  -1.20897  -1.08720  -0.97215
 Alpha  occ. eigenvalues --   -0.91048  -0.80960  -0.76377  -0.68258  -0.64133
 Alpha  occ. eigenvalues --   -0.60737  -0.58500  -0.57513  -0.54953  -0.51237
 Alpha  occ. eigenvalues --   -0.47157  -0.46285  -0.41968  -0.41128  -0.32956
 Alpha virt. eigenvalues --    0.03321   0.08057   0.09787   0.11439   0.12729
 Alpha virt. eigenvalues --    0.14937   0.15206   0.21589   0.22616   0.22636
 Alpha virt. eigenvalues --    0.24160   0.24216   0.26546   0.27047   0.28418

 Mulliken charges:
               1
     1  O   -0.555053
     2  N   -0.515700
     3  C    0.568344
     4  C   -0.138622
     5  C    0.213026
     6  C    0.081755
     7  C   -0.153409
     8  H    0.305932
     9  H    0.046172
    10  H    0.053977
    11  H    0.051867
    12  H    0.041710
 Sum of Mulliken charges =   0.00000

 Dipole moment (field-independent basis, Debye):
    X=              3.5658    Y=             -0.3808    Z=             -0.0003  Tot=              3.5861
 Quadrupole moment (field-independent basis, Debye-Ang):
   XX=            -44.9536   YY=            -34.3562   ZZ=            -43.2187
   XY=              1.0524   XZ=              0.0015   YZ=              0.0001

  Exact polarizability:  87.583  -1.594  73.161   0.001   0.000  37.590
 Approx polarizability:  93.321  -2.408  78.743   0.000   0.000  42.695

 ******    1 imaginary frequencies (negative Signs) ******

                      1                      2                      3
                      A                      A                      A
 Frequencies --  -1955.5555               192.3702               414.6049
 Red. masses --      1.0736                 6.6592                 3.3351
 Frc consts  --      2.4190                 0.1452                 0.3378
 IR Inten    --    625.6064                 0.0259                 2.4714

                      4                      5                      6
                      A                      A                      A
 Frequencies --    494.5385               499.7986               612.3709
 Red. masses --      2.4068                 7.0694                 7.0988
 Frc consts  --      0.3468                 1.0405                 1.5684
 IR Inten    --     19.8720                 4.2805                 2.4784

                      7                      8                      9
                      A                      A                      A
 Frequencies --    678.7891               750.6135               780.6051
 Red. masses --      6.9595                 2.1583                 1.6354
 Frc consts  --      1.8893                 0.7165                 0.5871
 IR Inten    --      0.0839                13.1856                51.6043

                     10                     11                     12
                      A                      A                      A
 Frequencies --    866.9501               911.8744               999.9740
 Red. masses --      1.4011                 5.7566                 1.3743
 Frc consts  --      0.6204                 2.8202                 0.8097
 IR Inten    --      3.0030                 8.4005                 1.0978

                     13                     14                     15
                      A                      A                      A
 Frequencies --   1020.0953              1036.5404              1050.7185
 Red. masses --      5.5416                 1.3194                 1.9915
 Frc consts  --      3.3976                 0.8352                 1.2954
 IR Inten    --     16.7672                 0.2041                 6.0638

                     16                     17                     18
                      A                      A                      A
 Frequencies --   1138.2464              1152.3251              1170.1894
 Red. masses --      1.1983                 1.3358                 1.1919
 Frc consts  --      0.9147                 1.0450                 0.9616
 IR Inten    --     68.6135                10.3012                22.7177

                     19                     20                     21
                      A                      A                      A
 Frequencies --   1282.0485              1326.3115              1422.0509
 Red. masses --      2.8771                 1.8863                 2.3897
 Frc consts  --      2.7862                 1.9551                 2.8473
 IR Inten    --      8.8843                35.3022                15.0610

                     22                     23                     24
                      A                      A                      A
 Frequencies --   1508.7248              1575.8078              1641.3340
 Red. masses --      2.6440                 5.0381                 6.0038
 Frc consts  --      3.5459                 7.3709                 9.5294
 IR Inten    --      4.2195               414.0106                57.2943

                     25                     26                     27
                      A                      A                      A
 Frequencies --   1715.5546              2139.9642              3225.1614
 Red. masses --      6.7322                 1.0707                 1.0903
 Frc consts  --     11.6739                 2.8890                 6.6820
 IR Inten    --    499.5574                74.8200                 6.3131

                     28                     29                     30
                      A                      A                      A
 Frequencies --   3240.8830              3266.8566              3273.2374
 Red. masses --      1.0920                 1.0970                 1.0962
 Frc consts  --      6.7575                 6.8982                 6.9200
 IR Inten    --      2.8294                 2.7772                 0.0459

 - Thermochemistry -
 -------------------
 Temperature   298.150 Kelvin.  Pressure   1.00000 Atm.
 Atom     1 has atomic number  8 and mass  15.99491

 Molecular mass:    95.03711 amu.
 Principal axes and moments of inertia in atomic units:
                           1         2         3
     Eigenvalues --   312.96839 623.30527 936.27365
           X            0.99997   0.00723   0.00001
           Y           -0.00723   0.99997  -0.00000
           Z           -0.00001   0.00000   1.00000
 This molecule is an asymmetric top.
 Rotational symmetry number  1.
 Rotational temperatures (Kelvin)      0.27675     0.13896     0.09251
 Rotational constants (GHZ):           5.76653     2.89544     1.92758
    1 imaginary frequencies ignored.
 Zero-point vibrational energy     235595.8 (Joules/Mol)
                                   56.30874 (Kcal/Mol)
 Warning -- explicit consideration of   5 degrees of freedom as
           vibrations may cause significant error
 Vibrational temperatures:    276.78   596.52   711.53   719.10   881.06
          (Kelvin)            976.62  1079.96  1123.12  1247.35  1311.98
                             1438.74  1467.69  1491.35  1511.75  1637.68
                             1657.94  1683.64  1844.58  1908.26  2046.01
                             2170.72  2267.23  2361.51  2468.30  3078.93
                             4640.28  4662.90  4700.27  4709.45

 Zero-point correction=                           0.089734 (Hartree/Particle)
 Thermal correction to Energy=                    0.094688
 Thermal correction to Enthalpy=                  0.095633
 Thermal correction to Gibbs Free Energy=         0.061027
 Sum of electronic and zero-point Energies=           -323.432864
 Sum of electronic and thermal Energies=              -323.427909
 Sum of electronic and thermal Enthalpies=            -323.426965
 Sum of electronic and thermal Free Energies=         -323.461571

                     E (Thermal)             CV                S
                      KCal/Mol        Cal/Mol-Kelvin    Cal/Mol-Kelvin
 Total                   59.418             18.806             72.834
 Electronic               0.000              0.000              0.000
 Translational            0.889              2.981             39.566
 Rotational               0.889              2.981             26.704
 Vibrational             57.640             12.844              6.564
 Vibration     1          0.634              1.850              2.205
 Vibration     2          0.778              1.439              0.910
 Vibration     3          0.850              1.262              0.672
 Vibration     4          0.855              1.250              0.659
 Vibration     5          0.972              1.006              0.429

 Optimization completed.
    -- Stationary point found.
 Normal termination of Gaussian 09 at Sat Aug 28 00:56:36 2021.
