 Gaussian 09, Revision E.01,
 Gaussian 09:  EM64L-G09RevE.01 30-Nov-2015

 ----------------------------------------------------------
 #p opt freq TPSSh/gen SCF(novaracc,noincfock) int=acc2e=12
 ----------------------------------------------------------

 -------------------------
 HY_H2O_TPSSh_PC2_OPT_FREQ
 -------------------------
 Symbolic Z-matrix:
 Charge =  0 Multiplicity = 1

 SCF Done:  E(RTPSSh) =  -400.139216929     A.U. after   12 cycles
 SCF Done:  E(RTPSSh) =  -400.139318096     A.U. after    9 cycles
 SCF Done:  E(RTPSSh) =  -400.139383149     A.U. after    9 cycles
 SCF Done:  E(RTPSSh) =  -400.139425692     A.U. after    8 cycles
 SCF Done:  E(RTPSSh) =  -400.139444601     A.U. after    8 cycles
 SCF Done:  E(RTPSSh) =  -400.139449762     A.U. after    7 cycles
 SCF Done:  E(RTPSSh) =  -400.139451418     A.U. after    7 cycles
 SCF Done:  E(RTPSSh) =  -400.139452743     A.U. after    7 cycles
 SCF Done:  E(RTPSSh) =  -400.139454332     A.U. after    8 cycles
 SCF Done:  E(RTPSSh) =  -400.139454845     A.U. after    7 cycles
 Optimization completed.
    -- Stationary point found.
 Normal termination of Gaussian 09 at Thu Sep  2 22:40:11 2021.

 ------------------------------------------------------------------
 #P Geom=AllCheck Guess=TCheck SCRF=Check GenChk RTPSSh/ChkBas Freq
 ------------------------------------------------------------------

 Structure from the checkpoint file:  "HY_H2O_TPSSh_PC2_OPT_FREQ.chk"
 -------------------------
 HY_H2O_TPSSh_PC2_OPT_FREQ
 -------------------------
 Charge =  0 Multiplicity = 1

                         Standard orientation:
 ---------------------------------------------------------------------
 Center     Atomic      Atomic             Coordinates (Angstroms)
 Number     Number       Type             X           Y           Z
 ---------------------------------------------------------------------
      1          8           0        1.239641    1.430334   -0.004238
      2          7           0        0.309240   -0.675265   -0.006459
      3          6           0        0.150707    0.651574   -0.000636
      4          6           0       -1.111157    1.263355    0.008655
      5          6           0       -0.789788   -1.444818   -0.006176
      6          6           0       -2.227575    0.452339    0.010138
      7          6           0       -2.074942   -0.936828    0.002208
      8          1           0        2.045508    0.854723   -0.017377
      9          1           0       -1.178471    2.342161    0.012653
     10          1           0       -0.612532   -2.514393   -0.013981
     11          1           0       -3.216293    0.894614    0.016275
     12          1           0       -2.928557   -1.600309    0.001557
     13          8           0        3.055883   -0.592878   -0.085476
     14          1           0        3.520002   -0.863431    0.713562
     15          1           0        2.158010   -0.999894   -0.034891
 ---------------------------------------------------------------------

 SCF Done:  E(RTPSSh) =  -400.139454845     A.U. after    1 cycles

 The electronic state is 1-A.
 Alpha  occ. eigenvalues --  -19.07304 -19.05360 -14.25796 -10.21235 -10.16032
 Alpha  occ. eigenvalues --  -10.14086 -10.12626 -10.12378  -1.04880  -0.98868
 Alpha  occ. eigenvalues --   -0.92309  -0.79422  -0.74280  -0.63436  -0.61517
 Alpha  occ. eigenvalues --   -0.53872  -0.52195  -0.49557  -0.47106  -0.43611
 Alpha  occ. eigenvalues --   -0.42414  -0.40158  -0.38787  -0.37346  -0.35223
 Alpha  occ. eigenvalues --   -0.34123  -0.30101  -0.28818  -0.26991  -0.23241
 Alpha virt. eigenvalues --   -0.05167  -0.02236   0.01332   0.02476   0.04257
 Alpha virt. eigenvalues --    0.06025   0.07491   0.09942   0.11492   0.11858
 Alpha virt. eigenvalues --    0.14296   0.15669   0.16631   0.18437   0.18755

 Mulliken charges:
               1
     1  O   -0.418754
     2  N   -0.521976
     3  C    0.561627
     4  C   -0.118300
     5  C    0.176656
     6  C    0.065847
     7  C   -0.153069
     8  H    0.225132
     9  H    0.040929
    10  H    0.052293
    11  H    0.046398
    12  H    0.028225
    13  O   -0.458795
    14  H    0.225869
    15  H    0.247918
 Sum of Mulliken charges =  -0.00000

 Dipole moment (field-independent basis, Debye):
    X=             -1.8542    Y=             -1.2596    Z=              1.3570  Tot=              2.6203
 Quadrupole moment (field-independent basis, Debye-Ang):
   XX=            -42.5066   YY=            -44.8747   ZZ=            -49.0416
   XY=             -2.6061   XZ=              5.3257   YZ=             -1.3270

  Exact polarizability:  99.869   2.268  84.864   0.996  -0.162  44.284
 Approx polarizability: 159.080   8.554 150.557   1.053  -0.317  68.763

                      1                      2                      3
                      A                      A                      A
 Frequencies --     71.6348               167.2469               204.0144
 Red. masses --      5.0882                 4.8324                 7.2947
 Frc consts  --      0.0154                 0.0796                 0.1789
 IR Inten    --      4.1059                23.4354                 4.0015

                      4                      5                      6
                      A                      A                      A
 Frequencies --    209.9418               301.3845               395.4174
 Red. masses --      4.4752                 1.1257                 1.4901
 Frc consts  --      0.1162                 0.0602                 0.1373
 IR Inten    --      2.9125               101.4050                44.6594

                      7                      8                      9
                      A                      A                      A
 Frequencies --    434.7393               472.4200               531.1392
 Red. masses --      1.9685                 4.7349                 2.6685
 Frc consts  --      0.2192                 0.6226                 0.4435
 IR Inten    --     40.4947                27.7970                 9.8040

                     10                     11                     12
                      A                      A                      A
 Frequencies --    567.6982               638.2139               752.3508
 Red. masses --      7.1032                 6.7468                 2.2066
 Frc consts  --      1.3488                 1.6191                 0.7359
 IR Inten    --      0.5917                 0.6557                18.9300

                     13                     14                     15
                      A                      A                      A
 Frequencies --    793.0881               803.1990               860.2092
 Red. masses --      1.7802                 1.1229                 5.5237
 Frc consts  --      0.6597                 0.4268                 2.4082
 IR Inten    --     66.5211               202.6286                 8.3026

                     16                     17                     18
                      A                      A                      A
 Frequencies --    866.8958               887.2045               975.7366
 Red. masses --      1.1643                 1.2592                 1.3822
 Frc consts  --      0.5155                 0.5840                 0.7753
 IR Inten    --    106.0166                16.5251                 0.5976

                     19                     20                     21
                      A                      A                      A
 Frequencies --   1004.8472              1009.3318              1061.7247
 Red. masses --      1.2908                 6.9597                 2.0799
 Frc consts  --      0.7679                 4.1774                 1.3814
 IR Inten    --      0.0741                13.6235                 6.2142

                     22                     23                     24
                      A                      A                      A
 Frequencies --   1120.2556              1169.4912              1271.8126
 Red. masses --      1.5966                 1.1134                 1.8201
 Frc consts  --      1.1805                 0.8972                 1.7345
 IR Inten    --      2.4924                12.7554                79.7958

                     25                     26                     27
                      A                      A                      A
 Frequencies --   1317.6335              1342.3583              1426.1962
 Red. masses --      2.9072                 3.9487                 1.3863
 Frc consts  --      2.9738                 4.1921                 1.6613
 IR Inten    --      6.0839                93.7012               104.5199

                     28                     29                     30
                      A                      A                      A
 Frequencies --   1504.2842              1515.9771              1616.1118
 Red. masses --      2.7159                 1.9204                 4.0281
 Frc consts  --      3.6210                 2.6003                 6.1986
 IR Inten    --    126.3491                40.4941                87.3085

                     31                     32                     33
                      A                      A                      A
 Frequencies --   1642.6632              1662.0344              3160.2979
 Red. masses --      1.7134                 1.8619                 1.0889
 Frc consts  --      2.7241                 3.0304                 6.4074
 IR Inten    --    108.9650                46.2290                14.2674

                     34                     35                     36
                      A                      A                      A
 Frequencies --   3174.0737              3202.8937              3208.2364
 Red. masses --      1.0890                 1.0936                 1.0961
 Frc consts  --      6.4639                 6.6100                 6.6468
 IR Inten    --     10.8987                14.9352                 2.6155

                     37                     38                     39
                      A                      A                      A
 Frequencies --   3274.2234              3396.8166              3837.4874
 Red. masses --      1.0688                 1.0628                 1.0672
 Frc consts  --      6.7509                 7.2249                 9.2595
 IR Inten    --    173.5543              1406.5251                64.1822

 - Thermochemistry -
 -------------------
 Temperature   298.150 Kelvin.  Pressure   1.00000 Atm.
 Atom     1 has atomic number  8 and mass  15.99491

 Molecular mass:   113.04768 amu.
 Principal axes and moments of inertia in atomic units:
                           1         2         3
     Eigenvalues --   447.627881256.937011700.17956
           X            0.99990  -0.01246   0.00664
           Y            0.01249   0.99991  -0.00439
           Z           -0.00659   0.00447   0.99997
 This molecule is an asymmetric top.
 Rotational symmetry number  1.
 Warning -- assumption of classical behavior for rotation
           may cause significant error
 Rotational temperatures (Kelvin)      0.19350     0.06891     0.05094
 Rotational constants (GHZ):           4.03179     1.43582     1.06150
 Zero-point vibrational energy     310139.6 (Joules/Mol)
                                   74.12513 (Kcal/Mol)
 Warning -- explicit consideration of  10 degrees of freedom as
           vibrations may cause significant error
 Vibrational temperatures:    103.07   240.63   293.53   302.06   433.62
          (Kelvin)            568.92   625.49   679.71   764.19   816.79
                              918.25  1082.46  1141.08  1155.62  1237.65
                             1247.27  1276.49  1403.87  1445.75  1452.20
                             1527.58  1611.80  1682.63  1829.85  1895.78
                             1931.35  2051.98  2164.33  2181.15  2325.22
                             2363.42  2391.29  4546.96  4566.78  4608.24
                             4615.93  4710.87  4887.26  5521.28

 Zero-point correction=                           0.118126 (Hartree/Particle)
 Thermal correction to Energy=                    0.125910
 Thermal correction to Enthalpy=                  0.126854
 Thermal correction to Gibbs Free Energy=         0.085836
 Sum of electronic and zero-point Energies=           -400.021329
 Sum of electronic and thermal Energies=              -400.013545
 Sum of electronic and thermal Enthalpies=            -400.012601
 Sum of electronic and thermal Free Energies=         -400.053619

                     E (Thermal)             CV                S
                      KCal/Mol        Cal/Mol-Kelvin    Cal/Mol-Kelvin
 Total                   79.009             28.980             86.329
 Electronic               0.000              0.000              0.000
 Translational            0.889              2.981             40.084
 Rotational               0.889              2.981             28.350
 Vibrational             77.232             23.018             17.896
 Vibration     1          0.598              1.968              4.108
 Vibration     2          0.624              1.883              2.466
 Vibration     3          0.640              1.834              2.097
 Vibration     4          0.642              1.826              2.044
 Vibration     5          0.693              1.671              1.409
 Vibration     6          0.762              1.480              0.980
 Vibration     7          0.795              1.395              0.843
 Vibration     8          0.829              1.311              0.731
 Vibration     9          0.886              1.181              0.585
 Vibration    10          0.924              1.101              0.509

 Normal termination of Gaussian 09 at Thu Sep  2 22:52:23 2021.
