 Gaussian 09, Revision E.01,
 Gaussian 09:  EM64L-G09RevE.01 30-Nov-2015

 --------------------
 #p opt freq BP86/gen
 --------------------

 ------------------------
 HY_H2O_BP86_PC2_OPT_FREQ
 ------------------------
 Symbolic Z-matrix:
 Charge =  0 Multiplicity = 1

 SCF Done:  E(RB-P86) =  -400.143812084     A.U. after   14 cycles
 SCF Done:  E(RB-P86) =  -400.144902934     A.U. after   12 cycles
 SCF Done:  E(RB-P86) =  -400.145011701     A.U. after   10 cycles
 SCF Done:  E(RB-P86) =  -400.145146707     A.U. after   11 cycles
 SCF Done:  E(RB-P86) =  -400.145212708     A.U. after   10 cycles
 SCF Done:  E(RB-P86) =  -400.145235014     A.U. after   10 cycles
 SCF Done:  E(RB-P86) =  -400.145241950     A.U. after    8 cycles
 SCF Done:  E(RB-P86) =  -400.145246114     A.U. after    8 cycles
 SCF Done:  E(RB-P86) =  -400.145249515     A.U. after    8 cycles
 SCF Done:  E(RB-P86) =  -400.145251430     A.U. after    8 cycles
 SCF Done:  E(RB-P86) =  -400.145251735     A.U. after    7 cycles
 Optimization completed.
    -- Stationary point found.
 Normal termination of Gaussian 09 at Fri Aug 27 00:13:05 2021.

 -----------------------------------------------------------------
 #P Geom=AllCheck Guess=TCheck SCRF=Check GenChk RBP86/ChkBas Freq
 -----------------------------------------------------------------

 Structure from the checkpoint file:  "HY_H2O_BP86_PC2_OPT_FREQ.chk"
 ------------------------
 HY_H2O_BP86_PC2_OPT_FREQ
 ------------------------
 Charge =  0 Multiplicity = 1

                         Standard orientation:
 ---------------------------------------------------------------------
 Center     Atomic      Atomic             Coordinates (Angstroms)
 Number     Number       Type             X           Y           Z
 ---------------------------------------------------------------------
      1          8           0        1.258785    1.430984   -0.004951
      2          7           0        0.312863   -0.683268   -0.006953
      3          6           0        0.162125    0.654561   -0.000835
      4          6           0       -1.105004    1.272669    0.008899
      5          6           0       -0.794944   -1.450865   -0.006401
      6          6           0       -2.230777    0.463024    0.010493
      7          6           0       -2.084115   -0.932899    0.002382
      8          1           0        2.068701    0.837761   -0.017460
      9          1           0       -1.168320    2.359743    0.013004
     10          1           0       -0.622967   -2.529793   -0.014652
     11          1           0       -3.224452    0.913417    0.016831
     12          1           0       -2.946995   -1.597145    0.001753
     13          8           0        3.041393   -0.602903   -0.086896
     14          1           0        3.493960   -0.864291    0.730437
     15          1           0        2.124898   -1.000411   -0.033700
 ---------------------------------------------------------------------

 SCF Done:  E(RB-P86) =  -400.145251735     A.U. after    1 cycles

 The electronic state is 1-A.
 Alpha  occ. eigenvalues --  -18.79373 -18.77321 -14.01446 -10.00064  -9.94894
 Alpha  occ. eigenvalues --   -9.92958  -9.91675  -9.91429  -0.98559  -0.92472
 Alpha  occ. eigenvalues --   -0.86676  -0.74305  -0.69480  -0.59476  -0.57751
 Alpha  occ. eigenvalues --   -0.50693  -0.49074  -0.46507  -0.44115  -0.40765
 Alpha  occ. eigenvalues --   -0.39873  -0.37463  -0.36162  -0.34818  -0.32765
 Alpha  occ. eigenvalues --   -0.31984  -0.27693  -0.27404  -0.24909  -0.22069
 Alpha virt. eigenvalues --   -0.07525  -0.04750  -0.00136   0.01217   0.03352
 Alpha virt. eigenvalues --    0.05084   0.06297   0.07889   0.08324   0.10357
 Alpha virt. eigenvalues --    0.12048   0.13950   0.14669   0.16076   0.16893

 Mulliken charges:
               1
     1  O   -0.382817
     2  N   -0.472837
     3  C    0.497454
     4  C   -0.139879
     5  C    0.121314
     6  C    0.026656
     7  C   -0.141821
     8  H    0.220751
     9  H    0.067176
    10  H    0.064618
    11  H    0.066336
    12  H    0.056672
    13  O   -0.440975
    14  H    0.221029
    15  H    0.236324
 Sum of Mulliken charges =  -0.00000

 Dipole moment (field-independent basis, Debye):
    X=             -1.8491    Y=             -1.1905    Z=              1.3646  Tot=              2.5881
 Quadrupole moment (field-independent basis, Debye-Ang):
   XX=            -43.0668   YY=            -45.2652   ZZ=            -49.3987
   XY=             -2.4092   XZ=              5.3310   YZ=             -1.3416

  Exact polarizability: 104.841   2.232  88.019   1.034  -0.148  45.735
 Approx polarizability: 190.765  11.591 179.058   1.185  -0.325  76.008

                      1                      2                      3
                      A                      A                      A
 Frequencies --     72.4388               170.3544               201.5382
 Red. masses --      5.1701                 4.9059                 4.5498
 Frc consts  --      0.0160                 0.0839                 0.1089
 IR Inten    --      3.7817                24.0043                 2.1606

                      4                      5                      6
                      A                      A                      A
 Frequencies --    204.4141               314.6659               392.8121
 Red. masses --      7.2779                 1.1179                 1.9770
 Frc consts  --      0.1792                 0.0652                 0.1797
 IR Inten    --      4.9890                94.9992                23.5295

                      7                      8                      9
                      A                      A                      A
 Frequencies --    434.3150               469.7523               515.9501
 Red. masses --      1.4789                 4.8503                 2.6233
 Frc consts  --      0.1644                 0.6306                 0.4114
 IR Inten    --     60.3780                28.1640                10.2437

                     10                     11                     12
                      A                      A                      A
 Frequencies --    558.7632               628.4389               726.5577
 Red. masses --      7.2053                 6.8343                 2.0139
 Frc consts  --      1.3254                 1.5903                 0.6264
 IR Inten    --      0.7058                 0.7822                21.2286

                     13                     14                     15
                      A                      A                      A
 Frequencies --    765.7133               830.0512               842.4108
 Red. masses --      2.0316                 1.4098                 2.2979
 Frc consts  --      0.7018                 0.5723                 0.9608
 IR Inten    --     47.8573               157.4522                10.3995

                     16                     17                     18
                      A                      A                      A
 Frequencies --    848.4086               889.1607               934.0225
 Red. masses --      1.4971                 1.0704                 1.3888
 Frc consts  --      0.6349                 0.4986                 0.7138
 IR Inten    --     61.4058               107.1955                 0.5914

                     19                     20                     21
                      A                      A                      A
 Frequencies --    962.0294               983.5167              1035.0873
 Red. masses --      1.2849                 6.7055                 2.0402
 Frc consts  --      0.7006                 3.8216                 1.2879
 IR Inten    --      0.0130                15.5912                 7.1973

                     22                     23                     24
                      A                      A                      A
 Frequencies --   1089.8192              1137.1735              1242.5620
 Red. masses --      1.5601                 1.0921                 1.6663
 Frc consts  --      1.0917                 0.8321                 1.5158
 IR Inten    --      2.0076                 9.9133                60.7660

                     25                     26                     27
                      A                      A                      A
 Frequencies --   1292.9290              1309.4632              1391.8886
 Red. masses --      3.2107                 3.9723                 1.5726
 Frc consts  --      3.1623                 4.0131                 1.7951
 IR Inten    --     11.6837                65.7988               118.0005

                     28                     29                     30
                      A                      A                      A
 Frequencies --   1459.9978              1477.8935              1568.8536
 Red. masses --      2.7944                 1.8558                 3.4945
 Frc consts  --      3.5095                 2.3882                 5.0676
 IR Inten    --    147.5758                 9.5278                82.0285

                     31                     32                     33
                      A                      A                      A
 Frequencies --   1592.5528              1615.0945              3071.3331
 Red. masses --      1.6958                 1.9430                 1.0710
 Frc consts  --      2.5341                 2.9863                 5.9524
 IR Inten    --    107.4154                40.0734               159.0665

                     34                     35                     36
                      A                      A                      A
 Frequencies --   3083.6661              3102.7958              3129.8050
 Red. masses --      1.0887                 1.0882                 1.0924
 Frc consts  --      6.0994                 6.1725                 6.3047
 IR Inten    --     14.9128                 3.7057                12.1020

                     37                     38                     39
                      A                      A                      A
 Frequencies --   3134.1828              3218.0673              3747.3891
 Red. masses --      1.0962                 1.0639                 1.0664
 Frc consts  --      6.3445                 6.4917                 8.8234
 IR Inten    --      8.3566              1682.3001                54.7450

 - Thermochemistry -
 -------------------
 Temperature   298.150 Kelvin.  Pressure   1.00000 Atm.
 Atom     1 has atomic number  8 and mass  15.99491

 Molecular mass:   113.04768 amu.
 Principal axes and moments of inertia in atomic units:
                           1         2         3
     Eigenvalues --   451.668231256.715091703.79825
           X            0.99990  -0.01240   0.00676
           Y            0.01243   0.99991  -0.00445
           Z           -0.00670   0.00454   0.99997
 This molecule is an asymmetric top.
 Rotational symmetry number  1.
 Warning -- assumption of classical behavior for rotation
           may cause significant error
 Rotational temperatures (Kelvin)      0.19176     0.06892     0.05084
 Rotational constants (GHZ):           3.99572     1.43608     1.05925
 Zero-point vibrational energy     301733.3 (Joules/Mol)
                                   72.11599 (Kcal/Mol)
 Warning -- explicit consideration of  10 degrees of freedom as
           vibrations may cause significant error
 Vibrational temperatures:    104.22   245.10   289.97   294.11   452.73
          (Kelvin)            565.17   624.88   675.87   742.34   803.93
                              904.18  1045.35  1101.69  1194.26  1212.04
                             1220.67  1279.30  1343.85  1384.14  1415.06
                             1489.26  1568.00  1636.14  1787.77  1860.23
                             1884.02  2002.61  2100.61  2126.36  2257.23
                             2291.33  2323.76  4418.96  4436.70  4464.23
                             4503.09  4509.38  4630.08  5391.65

 Zero-point correction=                           0.114924 (Hartree/Particle)
 Thermal correction to Energy=                    0.122776
 Thermal correction to Enthalpy=                  0.123720
 Thermal correction to Gibbs Free Energy=         0.082616
 Sum of electronic and zero-point Energies=           -400.030328
 Sum of electronic and thermal Energies=              -400.022476
 Sum of electronic and thermal Enthalpies=            -400.021531
 Sum of electronic and thermal Free Energies=         -400.062636

                     E (Thermal)             CV                S
                      KCal/Mol        Cal/Mol-Kelvin    Cal/Mol-Kelvin
 Total                   77.043             29.457             86.512
 Electronic               0.000              0.000              0.000
 Translational            0.889              2.981             40.084
 Rotational               0.889              2.981             28.360
 Vibrational             75.266             23.495             18.068
 Vibration     1          0.599              1.967              4.086
 Vibration     2          0.625              1.879              2.432
 Vibration     3          0.638              1.838              2.119
 Vibration     4          0.640              1.834              2.093
 Vibration     5          0.702              1.646              1.338
 Vibration     6          0.760              1.486              0.989
 Vibration     7          0.795              1.395              0.845
 Vibration     8          0.827              1.317              0.738
 Vibration     9          0.871              1.215              0.619
 Vibration    10          0.914              1.121              0.526

 Normal termination of Gaussian 09 at Fri Aug 27 00:14:04 2021.
