 Gaussian 09, Revision E.01,
 Gaussian 09:  EM64L-G09RevE.01 30-Nov-2015

 ---------------------
 #p opt freq B3LYP/gen
 ---------------------

 -------------------------
 HY_H2O_B3LYP_PC2_OPT_FREQ
 -------------------------
 Symbolic Z-matrix:
 Charge =  0 Multiplicity = 1

 SCF Done:  E(RB3LYP) =  -400.143650271     A.U. after   14 cycles
 SCF Done:  E(RB3LYP) =  -400.143653103     A.U. after    7 cycles
 SCF Done:  E(RB3LYP) =  -400.143655204     A.U. after    8 cycles
 SCF Done:  E(RB3LYP) =  -400.143655975     A.U. after    7 cycles
 SCF Done:  E(RB3LYP) =  -400.143656837     A.U. after    7 cycles
 SCF Done:  E(RB3LYP) =  -400.143657178     A.U. after    7 cycles
 SCF Done:  E(RB3LYP) =  -400.143657315     A.U. after    6 cycles
 SCF Done:  E(RB3LYP) =  -400.143657409     A.U. after    6 cycles
 SCF Done:  E(RB3LYP) =  -400.143657525     A.U. after    6 cycles
 Optimization completed.
    -- Stationary point found.
 Normal termination of Gaussian 09 at Fri Aug 27 00:34:33 2021.

 ------------------------------------------------------------------
 #P Geom=AllCheck Guess=TCheck SCRF=Check GenChk RB3LYP/ChkBas Freq
 ------------------------------------------------------------------

 Structure from the checkpoint file:  "HY_H2O_B3LYP_PC2_OPT_FREQ.chk"
 -------------------------
 HY_H2O_B3LYP_PC2_OPT_FREQ
 -------------------------
 Charge =  0 Multiplicity = 1

                         Standard orientation:
 ---------------------------------------------------------------------
 Center     Atomic      Atomic             Coordinates (Angstroms)
 Number     Number       Type             X           Y           Z
 ---------------------------------------------------------------------
      1          8           0        1.220229    1.442804   -0.000442
      2          7           0        0.304099   -0.669243   -0.002647
      3          6           0        0.139487    0.652990    0.001309
      4          6           0       -1.125836    1.256318    0.007168
      5          6           0       -0.787504   -1.445905   -0.003993
      6          6           0       -2.236479    0.440096    0.007130
      7          6           0       -2.074752   -0.946868    0.001019
      8          1           0        2.033046    0.891535   -0.013541
      9          1           0       -1.198927    2.333444    0.009787
     10          1           0       -0.606480   -2.513788   -0.010271
     11          1           0       -3.226787    0.875488    0.010635
     12          1           0       -2.922809   -1.615209   -0.000769
     13          8           0        3.091827   -0.584396   -0.086652
     14          1           0        3.596859   -0.885501    0.672542
     15          1           0        2.210467   -1.008314   -0.028897
 ---------------------------------------------------------------------

 SCF Done:  E(RB3LYP) =  -400.143657525     A.U. after    1 cycles

 The electronic state is 1-A.
 Alpha  occ. eigenvalues --  -19.14953 -19.12939 -14.32526 -10.27757 -10.22249
 Alpha  occ. eigenvalues --  -10.20253 -10.18753 -10.18510  -1.07724  -1.01549
 Alpha  occ. eigenvalues --   -0.95032  -0.81818  -0.76685  -0.65778  -0.63959
 Alpha  occ. eigenvalues --   -0.56405  -0.54664  -0.52071  -0.49328  -0.45739
 Alpha  occ. eigenvalues --   -0.44627  -0.42316  -0.41103  -0.39639  -0.37593
 Alpha  occ. eigenvalues --   -0.36283  -0.32691  -0.30383  -0.29081  -0.24852
 Alpha virt. eigenvalues --   -0.04348  -0.01486   0.00967   0.02147   0.03964
 Alpha virt. eigenvalues --    0.05734   0.07189   0.09573   0.11479   0.12368
 Alpha virt. eigenvalues --    0.14012   0.15170   0.16338   0.18164   0.18547

 Mulliken charges:
               1
     1  O   -0.402685
     2  N   -0.477777
     3  C    0.517326
     4  C   -0.121039
     5  C    0.138370
     6  C    0.042265
     7  C   -0.127703
     8  H    0.224964
     9  H    0.052253
    10  H    0.048454
    11  H    0.052697
    12  H    0.042125
    13  O   -0.440064
    14  H    0.212601
    15  H    0.238214
 Sum of Mulliken charges =  -0.00000

 Dipole moment (field-independent basis, Debye):
    X=             -1.8125    Y=             -1.3510    Z=              1.3289  Tot=              2.6223
 Quadrupole moment (field-independent basis, Debye-Ang):
   XX=            -42.3961   YY=            -45.2161   ZZ=            -49.5756
   XY=             -2.9526   XZ=              5.3222   YZ=             -1.3445

  Exact polarizability:  98.679   2.251  84.633   1.001  -0.180  44.608
 Approx polarizability: 145.982   6.915 139.299   1.178  -0.402  67.510

                      1                      2                      3
                      A                      A                      A
 Frequencies --     68.2110               149.8528               188.8294
 Red. masses --      5.0513                 4.6977                 7.2941
 Frc consts  --      0.0138                 0.0622                 0.1532
 IR Inten    --      4.3007                23.6850                 3.4530

                      4                      5                      6
                      A                      A                      A
 Frequencies --    213.5810               277.8950               386.8471
 Red. masses --      4.3832                 1.1254                 1.2501
 Frc consts  --      0.1178                 0.0512                 0.1102
 IR Inten    --      3.5415               112.0543                64.9022

                      7                      8                      9
                      A                      A                      A
 Frequencies --    434.4062               473.5796               537.6750
 Red. masses --      2.6762                 4.5553                 2.6199
 Frc consts  --      0.2976                 0.6019                 0.4462
 IR Inten    --     21.6560                26.9361                10.7532

                     10                     11                     12
                      A                      A                      A
 Frequencies --    575.7675               649.3669               753.7713
 Red. masses --      7.1425                 6.7753                 1.2651
 Frc consts  --      1.3951                 1.6833                 0.4235
 IR Inten    --      0.8834                 0.4464               160.0510

                     13                     14                     15
                      A                      A                      A
 Frequencies --    756.7870               799.3554               824.9885
 Red. masses --      1.5243                 1.9721                 1.1133
 Frc consts  --      0.5144                 0.7424                 0.4464
 IR Inten    --     65.3271                45.2534               137.9029

                     16                     17                     18
                      A                      A                      A
 Frequencies --    865.8780               887.1445               982.3171
 Red. masses --      5.8761                 1.3954                 1.3944
 Frc consts  --      2.5957                 0.6470                 0.7928
 IR Inten    --     10.5004                 0.3537                 0.5699

                     19                     20                     21
                      A                      A                      A
 Frequencies --   1010.5699              1015.2006              1064.6445
 Red. masses --      1.3085                 6.9654                 2.0662
 Frc consts  --      0.7873                 4.2296                 1.3799
 IR Inten    --      0.0819                12.3655                 5.7748

                     22                     23                     24
                      A                      A                      A
 Frequencies --   1123.5045              1172.5887              1264.9245
 Red. masses --      1.5902                 1.1385                 2.0207
 Frc consts  --      1.1826                 0.9223                 1.9049
 IR Inten    --      3.0677                15.2905                78.6516

                     25                     26                     27
                      A                      A                      A
 Frequencies --   1312.6621              1343.6462              1422.6588
 Red. masses --      2.4489                 3.8640                 1.3304
 Frc consts  --      2.4862                 4.1101                 1.5865
 IR Inten    --     17.5960                98.5556                94.9693

                     28                     29                     30
                      A                      A                      A
 Frequencies --   1506.2995              1516.1792              1617.6398
 Red. masses --      2.5871                 2.0380                 3.2587
 Frc consts  --      3.4584                 2.7603                 5.0241
 IR Inten    --     97.5666                72.3072                90.8536

                     31                     32                     33
                      A                      A                      A
 Frequencies --   1634.0163              1659.4272              3164.6778
 Red. masses --      1.4012                 3.0848                 1.0894
 Frc consts  --      2.2043                 5.0049                 6.4283
 IR Inten    --     85.4467                82.0748                13.2765

                     34                     35                     36
                      A                      A                      A
 Frequencies --   3181.6640              3208.2108              3213.7032
 Red. masses --      1.0891                 1.0935                 1.0958
 Frc consts  --      6.4955                 6.6315                 6.6683
 IR Inten    --      8.0722                10.8776                 1.7521

                     37                     38                     39
                      A                      A                      A
 Frequencies --   3409.0240              3506.1464              3870.9092
 Red. masses --      1.0674                 1.0621                 1.0683
 Frc consts  --      7.3083                 7.6929                 9.4312
 IR Inten    --    147.2200              1232.0013                80.2785

 - Thermochemistry -
 -------------------
 Temperature   298.150 Kelvin.  Pressure   1.00000 Atm.
 Atom     1 has atomic number  8 and mass  15.99491

 Molecular mass:   113.04768 amu.
 Principal axes and moments of inertia in atomic units:
                           1         2         3
     Eigenvalues --   448.608111272.145421716.76541
           X            0.99990  -0.01276   0.00643
           Y            0.01279   0.99991  -0.00437
           Z           -0.00637   0.00445   0.99997
 This molecule is an asymmetric top.
 Rotational symmetry number  1.
 Warning -- assumption of classical behavior for rotation
           may cause significant error
 Rotational temperatures (Kelvin)      0.19307     0.06808     0.05045
 Rotational constants (GHZ):           4.02298     1.41866     1.05125
 Zero-point vibrational energy     311295.5 (Joules/Mol)
                                   74.40142 (Kcal/Mol)
 Warning -- explicit consideration of  10 degrees of freedom as
           vibrations may cause significant error
 Vibrational temperatures:     98.14   215.60   271.68   307.30   399.83
          (Kelvin)            556.59   625.01   681.37   773.59   828.40
                              934.29  1084.51  1088.85  1150.09  1186.97
                             1245.80  1276.40  1413.33  1453.98  1460.65
                             1531.78  1616.47  1687.09  1819.94  1888.63
                             1933.20  2046.89  2167.23  2181.44  2327.42
                             2350.98  2387.54  4553.26  4577.70  4615.89
                             4623.80  4904.82  5044.56  5569.37

 Zero-point correction=                           0.118566 (Hartree/Particle)
 Thermal correction to Energy=                    0.126447
 Thermal correction to Enthalpy=                  0.127391
 Thermal correction to Gibbs Free Energy=         0.086082
 Sum of electronic and zero-point Energies=           -400.025091
 Sum of electronic and thermal Energies=              -400.017211
 Sum of electronic and thermal Enthalpies=            -400.016267
 Sum of electronic and thermal Free Energies=         -400.057576

                     E (Thermal)             CV                S
                      KCal/Mol        Cal/Mol-Kelvin    Cal/Mol-Kelvin
 Total                   79.346             29.124             86.942
 Electronic               0.000              0.000              0.000
 Translational            0.889              2.981             40.084
 Rotational               0.889              2.981             28.373
 Vibrational             77.569             23.163             18.485
 Vibration     1          0.598              1.969              4.204
 Vibration     2          0.618              1.903              2.674
 Vibration     3          0.633              1.855              2.239
 Vibration     4          0.644              1.820              2.013
 Vibration     5          0.679              1.714              1.547
 Vibration     6          0.755              1.498              1.012
 Vibration     7          0.795              1.395              0.844
 Vibration     8          0.830              1.309              0.728
 Vibration     9          0.893              1.167              0.570
 Vibration    10          0.932              1.084              0.493

 Normal termination of Gaussian 09 at Fri Aug 27 00:35:36 2021.
