 Gaussian 09, Revision E.01,
 Gaussian 09:  EM64L-G09RevE.01 30-Nov-2015

 ---------------------
 #p opt freq M062X/gen
 ---------------------

 -------------------------
 HY_H2O_M062X_PC2_OPT_FREQ
 -------------------------
 Symbolic Z-matrix:
 Charge =  0 Multiplicity = 1

 SCF Done:  E(RM062X) =  -399.972771460     A.U. after   14 cycles
 SCF Done:  E(RM062X) =  -399.972916156     A.U. after   10 cycles
 SCF Done:  E(RM062X) =  -399.972926612     A.U. after    9 cycles
 SCF Done:  E(RM062X) =  -399.972936332     A.U. after    9 cycles
 SCF Done:  E(RM062X) =  -399.972941125     A.U. after    8 cycles
 SCF Done:  E(RM062X) =  -399.972949566     A.U. after   10 cycles
 SCF Done:  E(RM062X) =  -399.972956297     A.U. after    9 cycles
 SCF Done:  E(RM062X) =  -399.972957922     A.U. after    8 cycles
 SCF Done:  E(RM062X) =  -399.972958240     A.U. after    6 cycles
 SCF Done:  E(RM062X) =  -399.972958631     A.U. after    7 cycles
 SCF Done:  E(RM062X) =  -399.972958804     A.U. after    6 cycles
 SCF Done:  E(RM062X) =  -399.972958916     A.U. after    6 cycles
 Optimization completed.
    -- Stationary point found.
 Normal termination of Gaussian 09 at Fri Aug 27 01:08:02 2021.

 ------------------------------------------------------------------
 #P Geom=AllCheck Guess=TCheck SCRF=Check GenChk RM062X/ChkBas Freq
 ------------------------------------------------------------------

 Structure from the checkpoint file:  "HY_H2O_M062X_PC2_OPT_FREQ.chk"
 -------------------------
 HY_H2O_M062X_PC2_OPT_FREQ
 -------------------------
 Charge =  0 Multiplicity = 1

                         Standard orientation:
 ---------------------------------------------------------------------
 Center     Atomic      Atomic             Coordinates (Angstroms)
 Number     Number       Type             X           Y           Z
 ---------------------------------------------------------------------
      1          8           0        1.212673    1.437304   -0.001081
      2          7           0        0.302177   -0.669436   -0.004230
      3          6           0        0.137493    0.647025    0.000634
      4          6           0       -1.124710    1.253047    0.007668
      5          6           0       -0.789441   -1.442595   -0.004973
      6          6           0       -2.233139    0.440664    0.008164
      7          6           0       -2.073499   -0.944785    0.001408
      8          1           0        2.024480    0.892232   -0.014481
      9          1           0       -1.190799    2.330170    0.010914
     10          1           0       -0.608958   -2.510274   -0.011694
     11          1           0       -3.223030    0.876904    0.012909
     12          1           0       -2.921238   -1.612448    0.000265
     13          8           0        3.093545   -0.573724   -0.081946
     14          1           0        3.625092   -0.899371    0.645344
     15          1           0        2.229247   -1.019934   -0.026840
 ---------------------------------------------------------------------

 SCF Done:  E(RM062X) =  -399.972958916     A.U. after    1 cycles

 The electronic state is 1-A.
 Alpha  occ. eigenvalues --  -19.64455 -19.62481 -14.75723 -10.64258 -10.58709
 Alpha  occ. eigenvalues --  -10.56660 -10.55011 -10.54777  -1.19917  -1.13528
 Alpha  occ. eigenvalues --   -1.05896  -0.91691  -0.86168  -0.74152  -0.72178
 Alpha  occ. eigenvalues --   -0.63899  -0.62270  -0.59279  -0.56206  -0.52462
 Alpha  occ. eigenvalues --   -0.52167  -0.48971  -0.48697  -0.46374  -0.44022
 Alpha  occ. eigenvalues --   -0.43371  -0.40586  -0.35808  -0.35231  -0.29787
 Alpha virt. eigenvalues --   -0.00437   0.02460   0.03853   0.04785   0.05977
 Alpha virt. eigenvalues --    0.07554   0.09030   0.12183   0.13798   0.17171
 Alpha virt. eigenvalues --    0.17466   0.18827   0.19359   0.20855   0.21997

 Mulliken charges:
               1
     1  O   -0.426760
     2  N   -0.594182
     3  C    0.643381
     4  C   -0.142732
     5  C    0.240398
     6  C    0.107679
     7  C   -0.166034
     8  H    0.221116
     9  H    0.028502
    10  H    0.026560
    11  H    0.031396
    12  H    0.014457
    13  O   -0.444401
    14  H    0.218760
    15  H    0.241860
 Sum of Mulliken charges =  -0.00000

 Dipole moment (field-independent basis, Debye):
    X=             -1.7272    Y=             -1.4714    Z=              1.3001  Tot=              2.6150
 Quadrupole moment (field-independent basis, Debye-Ang):
   XX=            -41.3909   YY=            -44.6683   ZZ=            -49.7210
   XY=             -3.3720   XZ=              5.2269   YZ=             -1.3355

  Exact polarizability:  95.108   2.328  82.735   0.900  -0.174  43.980
 Approx polarizability: 112.132   4.524 107.852   0.893  -0.347  57.328

                      1                      2                      3
                      A                      A                      A
 Frequencies --     66.9046               150.2612               184.8723
 Red. masses --      5.3547                 4.6273                 6.7085
 Frc consts  --      0.0141                 0.0616                 0.1351
 IR Inten    --      3.4824                25.4675                 1.9553

                      4                      5                      6
                      A                      A                      A
 Frequencies --    219.5395               305.5178               373.6126
 Red. masses --      4.5875                 1.0901                 1.2005
 Frc consts  --      0.1303                 0.0599                 0.0987
 IR Inten    --      2.0465               126.0076                67.7832

                      7                      8                      9
                      A                      A                      A
 Frequencies --    429.7211               474.0939               540.2410
 Red. masses --      3.1236                 4.3765                 2.5436
 Frc consts  --      0.3398                 0.5796                 0.4374
 IR Inten    --     12.5767                31.8913                13.0729

                     10                     11                     12
                      A                      A                      A
 Frequencies --    577.9937               646.9978               714.1124
 Red. masses --      6.7492                 6.2859                 1.1206
 Frc consts  --      1.3285                 1.5503                 0.3367
 IR Inten    --      1.2002                 0.6466               180.2105

                     13                     14                     15
                      A                      A                      A
 Frequencies --    760.7644               796.2978               814.1816
 Red. masses --      1.6774                 1.1477                 2.1753
 Frc consts  --      0.5720                 0.4288                 0.8496
 IR Inten    --     75.8503                98.8920                68.7532

                     16                     17                     18
                      A                      A                      A
 Frequencies --    878.1740               900.7312              1003.5081
 Red. masses --      5.8210                 1.3979                 1.3878
 Frc consts  --      2.6449                 0.6682                 0.8234
 IR Inten    --     10.2402                 0.6120                 0.7290

                     19                     20                     21
                      A                      A                      A
 Frequencies --   1021.3183              1023.1967              1079.2628
 Red. masses --      6.4551                 1.3253                 1.9260
 Frc consts  --      3.9671                 0.8175                 1.3218
 IR Inten    --     12.8711                 0.1604                 4.9257

                     22                     23                     24
                      A                      A                      A
 Frequencies --   1132.9083              1166.0681              1268.5807
 Red. masses --      1.5128                 1.1608                 2.0471
 Frc consts  --      1.1440                 0.9299                 1.9410
 IR Inten    --      2.6316                18.6482                86.9832

                     25                     26                     27
                      A                      A                      A
 Frequencies --   1316.0254              1368.3970              1418.6554
 Red. masses --      2.2035                 3.0898                 1.3422
 Frc consts  --      2.2485                 3.4088                 1.5915
 IR Inten    --     26.6767                51.4282               113.4698

                     28                     29                     30
                      A                      A                      A
 Frequencies --   1519.3069              1537.1876              1623.6117
 Red. masses --      2.2587                 2.9008                 1.1356
 Frc consts  --      3.0719                 4.0385                 1.7638
 IR Inten    --     13.1425               195.0017                83.3116

                     31                     32                     33
                      A                      A                      A
 Frequencies --   1661.3824              1694.8556              3181.4050
 Red. masses --      5.1089                 5.0800                 1.0899
 Frc consts  --      8.3083                 8.5976                 6.4996
 IR Inten    --    100.9017               122.4192                 9.1579

                     34                     35                     36
                      A                      A                      A
 Frequencies --   3185.5636              3228.7798              3235.0534
 Red. masses --      1.0917                 1.0944                 1.0965
 Frc consts  --      6.5272                 6.7219                 6.7611
 IR Inten    --      8.2570                 1.0363                 3.2696

                     37                     38                     39
                      A                      A                      A
 Frequencies --   3518.6176              3617.2460              3947.7713
 Red. masses --      1.0675                 1.0612                 1.0692
 Frc consts  --      7.7870                 8.1807                 9.8178
 IR Inten    --    247.2229              1067.7982               110.7216

 - Thermochemistry -
 -------------------
 Temperature   298.150 Kelvin.  Pressure   1.00000 Atm.
 Atom     1 has atomic number  8 and mass  15.99491

 Molecular mass:   113.04768 amu.
 Principal axes and moments of inertia in atomic units:
                           1         2         3
     Eigenvalues --   445.625901271.349171713.32090
           X            0.99989  -0.01321   0.00619
           Y            0.01324   0.99990  -0.00424
           Z           -0.00613   0.00433   0.99997
 This molecule is an asymmetric top.
 Rotational symmetry number  1.
 Warning -- assumption of classical behavior for rotation
           may cause significant error
 Rotational temperatures (Kelvin)      0.19436     0.06813     0.05055
 Rotational constants (GHZ):           4.04990     1.41955     1.05336
 Zero-point vibrational energy     314514.5 (Joules/Mol)
                                   75.17077 (Kcal/Mol)
 Warning -- explicit consideration of  10 degrees of freedom as
           vibrations may cause significant error
 Vibrational temperatures:     96.26   216.19   265.99   315.87   439.57
          (Kelvin)            537.54   618.27   682.11   777.29   831.60
                              930.88  1027.45  1094.57  1145.69  1171.42
                             1263.49  1295.95  1443.82  1469.45  1472.15
                             1552.82  1630.00  1677.71  1825.20  1893.46
                             1968.82  2041.13  2185.94  2211.67  2336.01
                             2390.36  2438.52  4577.33  4583.31  4645.49
                             4654.51  5062.50  5204.40  5679.96

 Zero-point correction=                           0.119792 (Hartree/Particle)
 Thermal correction to Energy=                    0.127653
 Thermal correction to Enthalpy=                  0.128597
 Thermal correction to Gibbs Free Energy=         0.087326
 Sum of electronic and zero-point Energies=           -399.853167
 Sum of electronic and thermal Energies=              -399.845306
 Sum of electronic and thermal Enthalpies=            -399.844361
 Sum of electronic and thermal Free Energies=         -399.885633

                     E (Thermal)             CV                S
                      KCal/Mol        Cal/Mol-Kelvin    Cal/Mol-Kelvin
 Total                   80.104             29.062             86.862
 Electronic               0.000              0.000              0.000
 Translational            0.889              2.981             40.084
 Rotational               0.889              2.981             28.364
 Vibrational             78.326             23.100             18.415
 Vibration     1          0.598              1.970              4.242
 Vibration     2          0.618              1.902              2.669
 Vibration     3          0.631              1.860              2.279
 Vibration     4          0.647              1.811              1.963
 Vibration     5          0.696              1.663              1.386
 Vibration     6          0.745              1.526              1.065
 Vibration     7          0.791              1.406              0.860
 Vibration     8          0.831              1.308              0.726
 Vibration     9          0.895              1.161              0.565
 Vibration    10          0.935              1.079              0.489

 Normal termination of Gaussian 09 at Fri Aug 27 01:09:16 2021.
