 Gaussian 09, Revision E.01,
 Gaussian 09:  EM64L-G09RevE.01 30-Nov-2015

 ------------------------
 #p opt freq TPSSTPSS/gen
 ------------------------

 ----------------------------
 HY_H2O_TPSSTPSS_PC2_OPT_FREQ
 ----------------------------
 Symbolic Z-matrix:
 Charge =  0 Multiplicity = 1

 SCF Done:  E(RTPSS-TPSS) =  -400.186806286     A.U. after   14 cycles
 SCF Done:  E(RTPSS-TPSS) =  -400.187323550     A.U. after   10 cycles
 SCF Done:  E(RTPSS-TPSS) =  -400.187410473     A.U. after   11 cycles
 SCF Done:  E(RTPSS-TPSS) =  -400.187491364     A.U. after   10 cycles
 SCF Done:  E(RTPSS-TPSS) =  -400.187540712     A.U. after   10 cycles
 SCF Done:  E(RTPSS-TPSS) =  -400.187555648     A.U. after   10 cycles
 SCF Done:  E(RTPSS-TPSS) =  -400.187560258     A.U. after    7 cycles
 SCF Done:  E(RTPSS-TPSS) =  -400.187563378     A.U. after    8 cycles
 SCF Done:  E(RTPSS-TPSS) =  -400.187566060     A.U. after    8 cycles
 SCF Done:  E(RTPSS-TPSS) =  -400.187567408     A.U. after    8 cycles
 SCF Done:  E(RTPSS-TPSS) =  -400.187567655     A.U. after    7 cycles
 Optimization completed.
    -- Stationary point found.
 Normal termination of Gaussian 09 at Fri Aug 27 00:24:30 2021.

 ---------------------------------------------------------------------
 #P Geom=AllCheck Guess=TCheck SCRF=Check GenChk RTPSSTPSS/ChkBas Freq
 ---------------------------------------------------------------------

 Structure from the checkpoint file:  "HY_H2O_TPSSTPSS_PC2_OPT_FREQ.chk"
 ----------------------------
 HY_H2O_TPSSTPSS_PC2_OPT_FREQ
 ----------------------------
 Charge =  0 Multiplicity = 1

                         Standard orientation:
 ---------------------------------------------------------------------
 Center     Atomic      Atomic             Coordinates (Angstroms)
 Number     Number       Type             X           Y           Z
 ---------------------------------------------------------------------
      1          8           0        1.250220    1.432877   -0.004803
      2          7           0        0.311894   -0.679639   -0.006802
      3          6           0        0.154697    0.653799   -0.000836
      4          6           0       -1.109660    1.268788    0.008786
      5          6           0       -0.792994   -1.449218   -0.006318
      6          6           0       -2.230800    0.457267    0.010399
      7          6           0       -2.080470   -0.935784    0.002342
      8          1           0        2.057562    0.846065   -0.017651
      9          1           0       -1.176063    2.350261    0.012897
     10          1           0       -0.616943   -2.521548   -0.014286
     11          1           0       -3.220954    0.902471    0.016737
     12          1           0       -2.937847   -1.598682    0.001762
     13          8           0        3.051951   -0.599248   -0.086651
     14          1           0        3.505444   -0.858229    0.727872
     15          1           0        2.143548   -1.001008   -0.034329
 ---------------------------------------------------------------------

 SCF Done:  E(RTPSS-TPSS) =  -400.187567655     A.U. after    1 cycles

 The electronic state is 1-A.
 Alpha  occ. eigenvalues --  -18.90481 -18.88583 -14.11121 -10.08588 -10.03502
 Alpha  occ. eigenvalues --  -10.01555 -10.00230  -9.99968  -1.00077  -0.94296
 Alpha  occ. eigenvalues --   -0.87932  -0.75524  -0.70577  -0.60175  -0.58310
 Alpha  occ. eigenvalues --   -0.50923  -0.49325  -0.46753  -0.44475  -0.41152
 Alpha  occ. eigenvalues --   -0.39798  -0.37715  -0.36253  -0.34845  -0.32768
 Alpha  occ. eigenvalues --   -0.31788  -0.27535  -0.27107  -0.24824  -0.21699
 Alpha virt. eigenvalues --   -0.06580  -0.03719   0.00252   0.01457   0.03349
 Alpha virt. eigenvalues --    0.05106   0.06517   0.08796   0.09329   0.10774
 Alpha virt. eigenvalues --    0.13104   0.14564   0.15460   0.17134   0.17530

 Mulliken charges:
               1
     1  O   -0.405477
     2  N   -0.501579
     3  C    0.540028
     4  C   -0.117632
     5  C    0.156171
     6  C    0.054838
     7  C   -0.145418
     8  H    0.219415
     9  H    0.044646
    10  H    0.055821
    11  H    0.050004
    12  H    0.032868
    13  O   -0.452808
    14  H    0.224324
    15  H    0.244800
 Sum of Mulliken charges =  -0.00000

 Dipole moment (field-independent basis, Debye):
    X=             -1.8639    Y=             -1.2131    Z=              1.3612  Tot=              2.6074
 Quadrupole moment (field-independent basis, Debye-Ang):
   XX=            -42.8826   YY=            -45.1143   ZZ=            -49.0821
   XY=             -2.4494   XZ=              5.3245   YZ=             -1.3233

  Exact polarizability: 102.713   2.297  86.508   1.058  -0.163  44.767
 Approx polarizability: 181.997  10.968 171.342   1.140  -0.308  73.511

                      1                      2                      3
                      A                      A                      A
 Frequencies --     72.7462               171.2207               205.4402
 Red. masses --      5.1498                 4.9226                 4.5262
 Frc consts  --      0.0161                 0.0850                 0.1126
 IR Inten    --      3.8089                23.6012                 2.3291

                      4                      5                      6
                      A                      A                      A
 Frequencies --    206.9900               313.8135               394.2343
 Red. masses --      7.3801                 1.1186                 1.7180
 Frc consts  --      0.1863                 0.0649                 0.1573
 IR Inten    --      4.4613                96.0650                32.6621

                      7                      8                      9
                      A                      A                      A
 Frequencies --    433.4193               468.4437               522.2107
 Red. masses --      1.6704                 4.8006                 2.6847
 Frc consts  --      0.1849                 0.6207                 0.4314
 IR Inten    --     51.5441                27.4622                 9.2975

                     10                     11                     12
                      A                      A                      A
 Frequencies --    560.1507               630.9547               739.2733
 Red. masses --      7.1594                 6.7777                 2.3587
 Frc consts  --      1.3235                 1.5897                 0.7595
 IR Inten    --      0.6542                 0.7008                14.6020

                     13                     14                     15
                      A                      A                      A
 Frequencies --    779.7538               817.8268               847.3309
 Red. masses --      1.8031                 1.1250                 4.8834
 Frc consts  --      0.6459                 0.4433                 2.0657
 IR Inten    --     56.5463               210.2897                 8.0891

                     16                     17                     18
                      A                      A                      A
 Frequencies --    862.6494               886.3144               956.1222
 Red. masses --      1.3187                 1.1019                 1.3787
 Frc consts  --      0.5782                 0.5100                 0.7426
 IR Inten    --     42.9501                75.3845                 0.5901

                     19                     20                     21
                      A                      A                      A
 Frequencies --    986.4035               995.5529              1047.7811
 Red. masses --      1.2825                 6.9837                 2.1142
 Frc consts  --      0.7352                 4.0782                 1.3675
 IR Inten    --      0.0391                14.4585                 6.5476

                     22                     23                     24
                      A                      A                      A
 Frequencies --   1106.4689              1158.9066              1258.2968
 Red. masses --      1.6212                 1.1058                 1.8140
 Frc consts  --      1.1694                 0.8750                 1.6922
 IR Inten    --      2.3136                11.4845                70.7407

                     25                     26                     27
                      A                      A                      A
 Frequencies --   1302.0502              1320.2521              1412.1640
 Red. masses --      3.0008                 4.3461                 1.4062
 Frc consts  --      2.9974                 4.4634                 1.6523
 IR Inten    --      4.6754               104.0145               103.0483

                     28                     29                     30
                      A                      A                      A
 Frequencies --   1481.1450              1498.3313              1589.3088
 Red. masses --      2.6751                 1.8571                 3.8893
 Frc consts  --      3.4577                 2.4564                 5.7882
 IR Inten    --    129.7586                21.4343                80.4193

                     31                     32                     33
                      A                      A                      A
 Frequencies --   1619.9850              1642.1492              3126.8460
 Red. masses --      2.5095                 1.3363                 1.0884
 Frc consts  --      3.8802                 2.1232                 6.2700
 IR Inten    --    113.7668                24.4014                17.2034

                     34                     35                     36
                      A                      A                      A
 Frequencies --   3140.6280              3157.6940              3169.1866
 Red. masses --      1.0882                 1.0704                 1.0930
 Frc consts  --      6.3240                 6.2883                 6.4682
 IR Inten    --     20.3257               141.9912                17.3017

                     37                     38                     39
                      A                      A                      A
 Frequencies --   3174.5841              3290.4646              3771.2927
 Red. masses --      1.0953                 1.0631                 1.0667
 Frc consts  --      6.5034                 6.7817                 8.9386
 IR Inten    --     14.6339              1510.1604                53.6930

 - Thermochemistry -
 -------------------
 Temperature   298.150 Kelvin.  Pressure   1.00000 Atm.
 Atom     1 has atomic number  8 and mass  15.99491

 Molecular mass:   113.04768 amu.
 Principal axes and moments of inertia in atomic units:
                           1         2         3
     Eigenvalues --   450.450681258.852531704.74951
           X            0.99990  -0.01235   0.00674
           Y            0.01238   0.99991  -0.00442
           Z           -0.00669   0.00451   0.99997
 This molecule is an asymmetric top.
 Rotational symmetry number  1.
 Warning -- assumption of classical behavior for rotation
           may cause significant error
 Rotational temperatures (Kelvin)      0.19228     0.06880     0.05081
 Rotational constants (GHZ):           4.00652     1.43364     1.05865
 Zero-point vibrational energy     305755.8 (Joules/Mol)
                                   73.07740 (Kcal/Mol)
 Warning -- explicit consideration of  10 degrees of freedom as
           vibrations may cause significant error
 Vibrational temperatures:    104.67   246.35   295.58   297.81   451.51
          (Kelvin)            567.21   623.59   673.99   751.34   805.93
                              907.80  1063.65  1121.89  1176.67  1219.12
                             1241.16  1275.21  1375.64  1419.21  1432.38
                             1507.52  1591.96  1667.41  1810.41  1873.36
                             1899.55  2031.79  2131.03  2155.76  2286.66
                             2330.79  2362.68  4498.83  4518.66  4543.21
                             4559.75  4567.51  4734.24  5426.04

 Zero-point correction=                           0.116456 (Hartree/Particle)
 Thermal correction to Energy=                    0.124263
 Thermal correction to Enthalpy=                  0.125207
 Thermal correction to Gibbs Free Energy=         0.084182
 Sum of electronic and zero-point Energies=           -400.071111
 Sum of electronic and thermal Energies=              -400.063305
 Sum of electronic and thermal Enthalpies=            -400.062361
 Sum of electronic and thermal Free Energies=         -400.103385

                     E (Thermal)             CV                S
                      KCal/Mol        Cal/Mol-Kelvin    Cal/Mol-Kelvin
 Total                   77.976             29.211             86.343
 Electronic               0.000              0.000              0.000
 Translational            0.889              2.981             40.084
 Rotational               0.889              2.981             28.360
 Vibrational             76.198             23.249             17.899
 Vibration     1          0.599              1.967              4.078
 Vibration     2          0.626              1.878              2.422
 Vibration     3          0.640              1.832              2.084
 Vibration     4          0.641              1.830              2.070
 Vibration     5          0.702              1.647              1.342
 Vibration     6          0.761              1.482              0.984
 Vibration     7          0.794              1.397              0.848
 Vibration     8          0.826              1.320              0.742
 Vibration     9          0.877              1.201              0.605
 Vibration    10          0.916              1.118              0.524

 Normal termination of Gaussian 09 at Fri Aug 27 00:25:40 2021.
