 Gaussian 09, Revision E.01,
 Gaussian 09:  EM64L-G09RevE.01 30-Nov-2015

 ----------------------
 #p opt freq PBEPBE/gen
 ----------------------

 --------------------------
 HY_H2O_PBEPBE_PC2_OPT_FREQ
 --------------------------
 Symbolic Z-matrix:
 Charge =  0 Multiplicity = 1

 SCF Done:  E(RPBE-PBE) =  -399.671798362     A.U. after   14 cycles
 SCF Done:  E(RPBE-PBE) =  -399.672676191     A.U. after   12 cycles
 SCF Done:  E(RPBE-PBE) =  -399.672777397     A.U. after   10 cycles
 SCF Done:  E(RPBE-PBE) =  -399.672904792     A.U. after   11 cycles
 SCF Done:  E(RPBE-PBE) =  -399.672966182     A.U. after   10 cycles
 SCF Done:  E(RPBE-PBE) =  -399.672986240     A.U. after   10 cycles
 SCF Done:  E(RPBE-PBE) =  -399.672992827     A.U. after    8 cycles
 SCF Done:  E(RPBE-PBE) =  -399.672996735     A.U. after    8 cycles
 SCF Done:  E(RPBE-PBE) =  -399.673000111     A.U. after    8 cycles
 SCF Done:  E(RPBE-PBE) =  -399.673001898     A.U. after    8 cycles
 SCF Done:  E(RPBE-PBE) =  -399.673002254     A.U. after    7 cycles
 Optimization completed.
    -- Stationary point found.
 Normal termination of Gaussian 09 at Fri Aug 27 00:07:30 2021.

 -------------------------------------------------------------------
 #P Geom=AllCheck Guess=TCheck SCRF=Check GenChk RPBEPBE/ChkBas Freq
 -------------------------------------------------------------------

 Structure from the checkpoint file:  "HY_H2O_PBEPBE_PC2_OPT_FREQ.chk"
 --------------------------
 HY_H2O_PBEPBE_PC2_OPT_FREQ
 --------------------------
 Charge =  0 Multiplicity = 1

                         Standard orientation:
 ---------------------------------------------------------------------
 Center     Atomic      Atomic             Coordinates (Angstroms)
 Number     Number       Type             X           Y           Z
 ---------------------------------------------------------------------
      1          8           0        1.255988    1.430099   -0.004846
      2          7           0        0.312423   -0.682323   -0.006798
      3          6           0        0.161471    0.654040   -0.000805
      4          6           0       -1.104876    1.271023    0.008786
      5          6           0       -0.793607   -1.449177   -0.006302
      6          6           0       -2.229414    0.461690    0.010381
      7          6           0       -2.082282   -0.932763    0.002376
      8          1           0        2.064877    0.838028   -0.016924
      9          1           0       -1.168385    2.357868    0.012820
     10          1           0       -0.621804   -2.528018   -0.014427
     11          1           0       -3.223001    0.911691    0.016647
     12          1           0       -2.944387   -1.597563    0.001752
     13          8           0        3.041182   -0.601647   -0.086980
     14          1           0        3.493452   -0.861605    0.729855
     15          1           0        2.127185   -1.000636   -0.034149
 ---------------------------------------------------------------------

 SCF Done:  E(RPBE-PBE) =  -399.673002254     A.U. after    1 cycles

 The electronic state is 1-A.
 Alpha  occ. eigenvalues --  -18.77240 -18.75109 -13.99623  -9.98378  -9.93213
 Alpha  occ. eigenvalues --   -9.91302  -9.90024  -9.89772  -0.98324  -0.92161
 Alpha  occ. eigenvalues --   -0.86410  -0.73986  -0.69142  -0.59145  -0.57428
 Alpha  occ. eigenvalues --   -0.50395  -0.48745  -0.46193  -0.43749  -0.40360
 Alpha  occ. eigenvalues --   -0.39612  -0.37066  -0.35780  -0.34427  -0.32384
 Alpha  occ. eigenvalues --   -0.31686  -0.27337  -0.27083  -0.24498  -0.21740
 Alpha virt. eigenvalues --   -0.07193  -0.04417  -0.00619   0.00656   0.02650
 Alpha virt. eigenvalues --    0.04428   0.05768   0.07918   0.08217   0.09906
 Alpha virt. eigenvalues --    0.12031   0.13447   0.14389   0.16056   0.16489

 Mulliken charges:
               1
     1  O   -0.377665
     2  N   -0.453732
     3  C    0.485295
     4  C   -0.119436
     5  C    0.116183
     6  C    0.025658
     7  C   -0.130634
     8  H    0.213628
     9  H    0.057384
    10  H    0.057377
    11  H    0.060490
    12  H    0.048599
    13  O   -0.438506
    14  H    0.219398
    15  H    0.235960
 Sum of Mulliken charges =  -0.00000

 Dipole moment (field-independent basis, Debye):
    X=             -1.8070    Y=             -1.1827    Z=              1.3659  Tot=              2.5553
 Quadrupole moment (field-independent basis, Debye-Ang):
   XX=            -43.0707   YY=            -45.3023   ZZ=            -49.4287
   XY=             -2.4023   XZ=              5.3319   YZ=             -1.3367

  Exact polarizability: 104.515   2.239  87.748   1.052  -0.144  45.369
 Approx polarizability: 191.029  11.706 179.537   1.211  -0.302  76.371

                      1                      2                      3
                      A                      A                      A
 Frequencies --     72.6156               169.4123               201.1251
 Red. masses --      5.1497                 4.9008                 4.5370
 Frc consts  --      0.0160                 0.0829                 0.1081
 IR Inten    --      3.8122                24.1391                 2.1683

                      4                      5                      6
                      A                      A                      A
 Frequencies --    203.5527               314.1057               391.8987
 Red. masses --      7.2434                 1.1181                 1.9208
 Frc consts  --      0.1768                 0.0650                 0.1738
 IR Inten    --      4.8602                97.0471                25.0348

                      7                      8                      9
                      A                      A                      A
 Frequencies --    432.7472               469.8833               515.7466
 Red. masses --      1.5100                 4.8602                 2.6030
 Frc consts  --      0.1666                 0.6322                 0.4079
 IR Inten    --     58.5223                28.1173                10.4789

                     10                     11                     12
                      A                      A                      A
 Frequencies --    558.9811               627.5751               727.0976
 Red. masses --      7.1725                 6.8152                 1.9383
 Frc consts  --      1.3204                 1.5815                 0.6038
 IR Inten    --      0.6154                 0.7577                23.2513

                     13                     14                     15
                      A                      A                      A
 Frequencies --    766.8589               827.7584               844.0611
 Red. masses --      2.0959                 1.2436                 2.2432
 Frc consts  --      0.7262                 0.5020                 0.9416
 IR Inten    --     44.8658               179.3672                 8.8661

                     16                     17                     18
                      A                      A                      A
 Frequencies --    848.2978               888.5941               933.6136
 Red. masses --      1.7918                 1.0705                 1.3917
 Frc consts  --      0.7597                 0.4980                 0.7147
 IR Inten    --     43.8275               102.9122                 0.5659

                     19                     20                     21
                      A                      A                      A
 Frequencies --    962.4174               984.5148              1038.3805
 Red. masses --      1.2879                 6.6239                 2.0108
 Frc consts  --      0.7029                 3.7828                 1.2774
 IR Inten    --      0.0160                14.9631                 6.8657

                     22                     23                     24
                      A                      A                      A
 Frequencies --   1091.0984              1135.6160              1244.4903
 Red. masses --      1.5342                 1.0856                 1.5966
 Frc consts  --      1.0761                 0.8249                 1.4569
 IR Inten    --      2.0581                 9.3105                62.4728

                     25                     26                     27
                      A                      A                      A
 Frequencies --   1300.5803              1316.7013              1392.5478
 Red. masses --      3.1757                 3.8602                 1.6337
 Frc consts  --      3.1649                 3.9430                 1.8666
 IR Inten    --     20.0273                44.2815               122.8456

                     28                     29                     30
                      A                      A                      A
 Frequencies --   1464.3553              1479.4006              1574.6975
 Red. masses --      2.8832                 1.8814                 3.4083
 Frc consts  --      3.6426                 2.4260                 4.9794
 IR Inten    --    153.5148                 6.5787                80.4195

                     31                     32                     33
                      A                      A                      A
 Frequencies --   1595.7955              1619.0228              3088.4140
 Red. masses --      1.5424                 2.3485                 1.0805
 Frc consts  --      2.3142                 3.6270                 6.0723
 IR Inten    --     95.7038                56.2596                95.7457

                     34                     35                     36
                      A                      A                      A
 Frequencies --   3092.5743              3110.9523              3138.4749
 Red. masses --      1.0791                 1.0881                 1.0923
 Frc consts  --      6.0809                 6.2047                 6.3390
 IR Inten    --     91.8807                 1.8637                10.3107

                     37                     38                     39
                      A                      A                      A
 Frequencies --   3142.5697              3237.9138              3762.2928
 Red. masses --      1.0965                 1.0639                 1.0665
 Frc consts  --      6.3800                 6.5715                 8.8941
 IR Inten    --      7.9726              1640.1713                56.9722

 - Thermochemistry -
 -------------------
 Temperature   298.150 Kelvin.  Pressure   1.00000 Atm.
 Atom     1 has atomic number  8 and mass  15.99491

 Molecular mass:   113.04768 amu.
 Principal axes and moments of inertia in atomic units:
                           1         2         3
     Eigenvalues --   450.804231255.394911701.61918
           X            0.99990  -0.01238   0.00676
           Y            0.01241   0.99991  -0.00445
           Z           -0.00671   0.00453   0.99997
 This molecule is an asymmetric top.
 Rotational symmetry number  1.
 Warning -- assumption of classical behavior for rotation
           may cause significant error
 Rotational temperatures (Kelvin)      0.19213     0.06899     0.05090
 Rotational constants (GHZ):           4.00338     1.43759     1.06060
 Zero-point vibrational energy     302456.2 (Joules/Mol)
                                   72.28878 (Kcal/Mol)
 Warning -- explicit consideration of  10 degrees of freedom as
           vibrations may cause significant error
 Vibrational temperatures:    104.48   243.75   289.37   292.87   451.93
          (Kelvin)            563.85   622.63   676.06   742.04   804.25
                              902.94  1046.13  1103.34  1190.96  1214.41
                             1220.51  1278.49  1343.26  1384.70  1416.50
                             1494.00  1569.85  1633.90  1790.54  1871.24
                             1894.44  2003.56  2106.88  2128.52  2265.64
                             2295.99  2329.41  4443.53  4449.52  4475.96
                             4515.56  4521.45  4658.63  5413.09

 Zero-point correction=                           0.115199 (Hartree/Particle)
 Thermal correction to Energy=                    0.123056
 Thermal correction to Enthalpy=                  0.124000
 Thermal correction to Gibbs Free Energy=         0.082886
 Sum of electronic and zero-point Energies=           -399.557803
 Sum of electronic and thermal Energies=              -399.549946
 Sum of electronic and thermal Enthalpies=            -399.549002
 Sum of electronic and thermal Free Energies=         -399.590116

                     E (Thermal)             CV                S
                      KCal/Mol        Cal/Mol-Kelvin    Cal/Mol-Kelvin
 Total                   77.219             29.449             86.532
 Electronic               0.000              0.000              0.000
 Translational            0.889              2.981             40.084
 Rotational               0.889              2.981             28.356
 Vibrational             75.441             23.488             18.092
 Vibration     1          0.599              1.967              4.081
 Vibration     2          0.625              1.880              2.442
 Vibration     3          0.638              1.838              2.123
 Vibration     4          0.639              1.835              2.101
 Vibration     5          0.702              1.647              1.341
 Vibration     6          0.759              1.487              0.993
 Vibration     7          0.794              1.399              0.850
 Vibration     8          0.827              1.317              0.738
 Vibration     9          0.871              1.215              0.620
 Vibration    10          0.915              1.120              0.526

 Normal termination of Gaussian 09 at Fri Aug 27 00:08:29 2021.
