 Gaussian 09, Revision E.01,
 Gaussian 09:  EM64L-G09RevE.01 30-Nov-2015

 --------------------
 #p opt freq BLYP/gen
 --------------------

 ------------------------
 HY_H2O_BLYP_PC2_OPT_FREQ
 ------------------------
 Symbolic Z-matrix:
 Charge =  0 Multiplicity = 1

 SCF Done:  E(RB-LYP) =  -400.024126451     A.U. after   14 cycles
 SCF Done:  E(RB-LYP) =  -400.025398322     A.U. after   12 cycles
 SCF Done:  E(RB-LYP) =  -400.025428623     A.U. after    9 cycles
 SCF Done:  E(RB-LYP) =  -400.025435567     A.U. after    8 cycles
 SCF Done:  E(RB-LYP) =  -400.025439291     A.U. after    8 cycles
 SCF Done:  E(RB-LYP) =  -400.025443504     A.U. after    8 cycles
 SCF Done:  E(RB-LYP) =  -400.025444920     A.U. after    8 cycles
 SCF Done:  E(RB-LYP) =  -400.025445477     A.U. after    7 cycles
 SCF Done:  E(RB-LYP) =  -400.025445817     A.U. after    7 cycles
 SCF Done:  E(RB-LYP) =  -400.025446057     A.U. after    7 cycles
 SCF Done:  E(RB-LYP) =  -400.025446297     A.U. after    7 cycles
 SCF Done:  E(RB-LYP) =  -400.025446382     A.U. after    7 cycles
 Optimization completed.
    -- Stationary point found.
 Normal termination of Gaussian 09 at Fri Aug 27 00:18:45 2021.

 -----------------------------------------------------------------
 #P Geom=AllCheck Guess=TCheck SCRF=Check GenChk RBLYP/ChkBas Freq
 -----------------------------------------------------------------

 Structure from the checkpoint file:  "HY_H2O_BLYP_PC2_OPT_FREQ.chk"
 ------------------------
 HY_H2O_BLYP_PC2_OPT_FREQ
 ------------------------
 Charge =  0 Multiplicity = 1

                         Standard orientation:
 ---------------------------------------------------------------------
 Center     Atomic      Atomic             Coordinates (Angstroms)
 Number     Number       Type             X           Y           Z
 ---------------------------------------------------------------------
      1          8           0        1.236943    1.455402   -0.001525
      2          7           0        0.309627   -0.677740   -0.003423
      3          6           0        0.143478    0.659016    0.000949
      4          6           0       -1.130176    1.267259    0.007495
      5          6           0       -0.794140   -1.457659   -0.004349
      6          6           0       -2.250455    0.446388    0.007716
      7          6           0       -2.089532   -0.950068    0.001327
      8          1           0        2.054499    0.886327   -0.013861
      9          1           0       -1.203922    2.351036    0.010364
     10          1           0       -0.613448   -2.532315   -0.010892
     11          1           0       -3.246009    0.885957    0.011655
     12          1           0       -2.944515   -1.620471   -0.000244
     13          8           0        3.103463   -0.596331   -0.089396
     14          1           0        3.584183   -0.875592    0.706243
     15          1           0        2.203523   -1.012957   -0.030769
 ---------------------------------------------------------------------

 SCF Done:  E(RB-LYP) =  -400.025446382     A.U. after    1 cycles

 The electronic state is 1-A.
 Alpha  occ. eigenvalues --  -18.79615 -18.77600 -14.01534 -10.00911  -9.95615
 Alpha  occ. eigenvalues --   -9.93643  -9.92425  -9.92155  -0.97111  -0.91416
 Alpha  occ. eigenvalues --   -0.85285  -0.73070  -0.68370  -0.58393  -0.56731
 Alpha  occ. eigenvalues --   -0.49747  -0.48091  -0.45723  -0.43299  -0.40061
 Alpha  occ. eigenvalues --   -0.38658  -0.36680  -0.35285  -0.33951  -0.32022
 Alpha  occ. eigenvalues --   -0.30945  -0.26813  -0.26366  -0.24100  -0.21214
 Alpha virt. eigenvalues --   -0.06711  -0.04032  -0.00889   0.00488   0.02482
 Alpha virt. eigenvalues --    0.04225   0.05517   0.07600   0.08397   0.09625
 Alpha virt. eigenvalues --    0.12024   0.13375   0.14401   0.16009   0.16459

 Mulliken charges:
               1
     1  O   -0.373328
     2  N   -0.430631
     3  C    0.467993
     4  C   -0.119307
     5  C    0.092188
     6  C    0.017265
     7  C   -0.106972
     8  H    0.214723
     9  H    0.060481
    10  H    0.053475
    11  H    0.059545
    12  H    0.052558
    13  O   -0.425208
    14  H    0.206735
    15  H    0.230484
 Sum of Mulliken charges =  -0.00000

 Dipole moment (field-independent basis, Debye):
    X=             -1.8383    Y=             -1.2477    Z=              1.3422  Tot=              2.5957
 Quadrupole moment (field-independent basis, Debye-Ang):
   XX=            -43.3895   YY=            -45.8541   ZZ=            -49.7802
   XY=             -2.6053   XZ=              5.3693   YZ=             -1.3424

  Exact polarizability: 105.128   2.326  88.589   1.136  -0.177  45.874
 Approx polarizability: 191.828  11.325 181.358   1.457  -0.420  77.909

                      1                      2                      3
                      A                      A                      A
 Frequencies --     68.5442               150.9906               185.3936
 Red. masses --      5.1003                 4.8418                 7.3215
 Frc consts  --      0.0141                 0.0650                 0.1483
 IR Inten    --      3.8697                23.8844                 3.4682

                      4                      5                      6
                      A                      A                      A
 Frequencies --    203.3076               289.3497               381.6726
 Red. masses --      4.4873                 1.1165                 1.3540
 Frc consts  --      0.1093                 0.0551                 0.1162
 IR Inten    --      2.6409               102.0886                52.1794

                      7                      8                      9
                      A                      A                      A
 Frequencies --    422.2590               460.7788               517.7003
 Red. masses --      2.2774                 4.6707                 2.6527
 Frc consts  --      0.2393                 0.5843                 0.4189
 IR Inten    --     29.8431                25.7966                 9.5497

                     10                     11                     12
                      A                      A                      A
 Frequencies --    558.1789               632.5283               726.9472
 Red. masses --      7.3066                 6.9097                 2.0845
 Frc consts  --      1.3413                 1.6288                 0.6490
 IR Inten    --      1.0705                 0.5608                22.9323

                     13                     14                     15
                      A                      A                      A
 Frequencies --    765.2496               772.0582               823.5636
 Red. masses --      1.6379                 1.2132                 1.1120
 Frc consts  --      0.5651                 0.4261                 0.4444
 IR Inten    --     89.7298               150.2471               120.9694

                     16                     17                     18
                      A                      A                      A
 Frequencies --    834.3998               854.9015               937.4545
 Red. masses --      5.7905                 1.3306                 1.3894
 Frc consts  --      2.3753                 0.5730                 0.7194
 IR Inten    --      9.6266                 2.9615                 0.5535

                     19                     20                     21
                      A                      A                      A
 Frequencies --    967.1966               981.6589              1031.4040
 Red. masses --      1.2918                 7.0164                 2.1453
 Frc consts  --      0.7120                 3.9837                 1.3446
 IR Inten    --      0.0235                12.5565                 5.6750

                     22                     23                     24
                      A                      A                      A
 Frequencies --   1089.9461              1146.5758              1229.4705
 Red. masses --      1.6447                 1.1151                 2.0589
 Frc consts  --      1.1512                 0.8637                 1.8337
 IR Inten    --      2.8953                12.1575                63.7082

                     25                     26                     27
                      A                      A                      A
 Frequencies --   1274.6258              1288.8869              1386.3645
 Red. masses --      2.5798                 4.5989                 1.3570
 Frc consts  --      2.4695                 4.5013                 1.5367
 IR Inten    --      5.5598               127.4102                90.5859

                     28                     29                     30
                      A                      A                      A
 Frequencies --   1452.3274              1470.1636              1555.2794
 Red. masses --      2.5871                 1.8558                 3.8035
 Frc consts  --      3.2150                 2.3632                 5.4206
 IR Inten    --    118.5086                17.8092                71.1539

                     31                     32                     33
                      A                      A                      A
 Frequencies --   1584.7215              1607.0481              3084.1224
 Red. masses --      2.6830                 1.2913                 1.0886
 Frc consts  --      3.9699                 1.9649                 6.1010
 IR Inten    --    108.9416                24.2759                15.6161

                     34                     35                     36
                      A                      A                      A
 Frequencies --   3102.5604              3127.3535              3132.8511
 Red. masses --      1.0881                 1.0925                 1.0952
 Frc consts  --      6.1709                 6.2952                 6.3331
 IR Inten    --      9.1589                15.2343                 3.4743

                     37                     38                     39
                      A                      A                      A
 Frequencies --   3205.4585              3314.3875              3724.0548
 Red. masses --      1.0682                 1.0626                 1.0673
 Frc consts  --      6.4664                 6.8778                 8.7212
 IR Inten    --    132.0929              1347.7421                56.9287

 - Thermochemistry -
 -------------------
 Temperature   298.150 Kelvin.  Pressure   1.00000 Atm.
 Atom     1 has atomic number  8 and mass  15.99491

 Molecular mass:   113.04768 amu.
 Principal axes and moments of inertia in atomic units:
                           1         2         3
     Eigenvalues --   456.449661286.067821738.14816
           X            0.99990  -0.01246   0.00664
           Y            0.01249   0.99991  -0.00444
           Z           -0.00659   0.00453   0.99997
 This molecule is an asymmetric top.
 Rotational symmetry number  1.
 Warning -- assumption of classical behavior for rotation
           may cause significant error
 Rotational temperatures (Kelvin)      0.18976     0.06735     0.04983
 Rotational constants (GHZ):           3.95387     1.40330     1.03831
 Zero-point vibrational energy     301110.4 (Joules/Mol)
                                   71.96712 (Kcal/Mol)
 Warning -- explicit consideration of  10 degrees of freedom as
           vibrations may cause significant error
 Vibrational temperatures:     98.62   217.24   266.74   292.51   416.31
          (Kelvin)            549.14   607.54   662.96   744.85   803.09
                              910.07  1045.91  1101.02  1110.82  1184.92
                             1200.51  1230.01  1348.79  1391.58  1412.39
                             1483.96  1568.19  1649.66  1768.93  1833.90
                             1854.42  1994.67  2089.57  2115.23  2237.70
                             2280.06  2312.18  4437.36  4463.89  4499.56
                             4507.47  4611.93  4768.66  5358.08

 Zero-point correction=                           0.114687 (Hartree/Particle)
 Thermal correction to Energy=                    0.122700
 Thermal correction to Enthalpy=                  0.123644
 Thermal correction to Gibbs Free Energy=         0.082117
 Sum of electronic and zero-point Energies=           -399.910759
 Sum of electronic and thermal Energies=              -399.902747
 Sum of electronic and thermal Enthalpies=            -399.901802
 Sum of electronic and thermal Free Energies=         -399.943330

                     E (Thermal)             CV                S
                      KCal/Mol        Cal/Mol-Kelvin    Cal/Mol-Kelvin
 Total                   76.995             29.835             87.402
 Electronic               0.000              0.000              0.000
 Translational            0.889              2.981             40.084
 Rotational               0.889              2.981             28.414
 Vibrational             75.218             23.874             18.905
 Vibration     1          0.598              1.969              4.195
 Vibration     2          0.618              1.902              2.660
 Vibration     3          0.631              1.860              2.273
 Vibration     4          0.639              1.835              2.103
 Vibration     5          0.686              1.694              1.478
 Vibration     6          0.751              1.509              1.033
 Vibration     7          0.785              1.422              0.884
 Vibration     8          0.819              1.337              0.764
 Vibration     9          0.873              1.211              0.615
 Vibration    10          0.914              1.122              0.527

 Optimization completed.
    -- Stationary point found.
 Normal termination of Gaussian 09 at Fri Aug 27 00:19:43 2021.
