 Gaussian 09, Revision E.01,
 Gaussian 09:  EM64L-G09RevE.01 30-Nov-2015

 -------------------------
 #p opt freq CAM-B3LYP/gen
 -------------------------

 -----------------------------
 HY_H2O_CAM-B3LYP_PC2_OPT_FREQ
 -----------------------------
 Symbolic Z-matrix:
 Charge =  0 Multiplicity = 1

 SCF Done:  E(RCAM-B3LYP) =  -399.958338824     A.U. after   14 cycles
 SCF Done:  E(RCAM-B3LYP) =  -399.958631448     A.U. after   10 cycles
 SCF Done:  E(RCAM-B3LYP) =  -399.958649654     A.U. after    8 cycles
 SCF Done:  E(RCAM-B3LYP) =  -399.958669077     A.U. after    9 cycles
 SCF Done:  E(RCAM-B3LYP) =  -399.958677176     A.U. after    8 cycles
 SCF Done:  E(RCAM-B3LYP) =  -399.958680697     A.U. after    8 cycles
 SCF Done:  E(RCAM-B3LYP) =  -399.958681623     A.U. after    8 cycles
 SCF Done:  E(RCAM-B3LYP) =  -399.958682766     A.U. after    8 cycles
 SCF Done:  E(RCAM-B3LYP) =  -399.958683823     A.U. after    8 cycles
 SCF Done:  E(RCAM-B3LYP) =  -399.958684472     A.U. after    8 cycles
 SCF Done:  E(RCAM-B3LYP) =  -399.958684596     A.U. after    6 cycles
 Optimization completed.
    -- Stationary point found.
 Normal termination of Gaussian 09 at Fri Aug 27 00:46:35 2021.

 ----------------------------------------------------------------------
 #P Geom=AllCheck Guess=TCheck SCRF=Check GenChk RCAM-B3LYP/ChkBas Freq
 ----------------------------------------------------------------------

 Structure from the checkpoint file:  "HY_H2O_CAM-B3LYP_PC2_OPT_FREQ.chk"
 -----------------------------
 HY_H2O_CAM-B3LYP_PC2_OPT_FREQ
 -----------------------------
 Charge =  0 Multiplicity = 1

                         Standard orientation:
 ---------------------------------------------------------------------
 Center     Atomic      Atomic             Coordinates (Angstroms)
 Number     Number       Type             X           Y           Z
 ---------------------------------------------------------------------
      1          8           0        1.222858    1.429753    0.000662
      2          7           0        0.302473   -0.668213   -0.001434
      3          6           0        0.144389    0.647372    0.001978
      4          6           0       -1.114359    1.253420    0.006807
      5          6           0       -0.787684   -1.439155   -0.003362
      6          6           0       -2.222349    0.445152    0.006217
      7          6           0       -2.066608   -0.938298    0.000595
      8          1           0        2.035323    0.879818   -0.011450
      9          1           0       -1.180867    2.330253    0.009108
     10          1           0       -0.610291   -2.506943   -0.009225
     11          1           0       -3.210675    0.883625    0.008932
     12          1           0       -2.916430   -1.603108   -0.001619
     13          8           0        3.061795   -0.580941   -0.085758
     14          1           0        3.586848   -0.903235    0.648643
     15          1           0        2.181218   -1.004361   -0.026985
 ---------------------------------------------------------------------

 SCF Done:  E(RCAM-B3LYP) =  -399.958684596     A.U. after    1 cycles

 The electronic state is 1-A.
 Alpha  occ. eigenvalues --  -19.21906 -19.20047 -14.39619 -10.35072 -10.29482
 Alpha  occ. eigenvalues --  -10.27495 -10.25758 -10.25531  -1.15936  -1.09412
 Alpha  occ. eigenvalues --   -1.03462  -0.90068  -0.84717  -0.73411  -0.71414
 Alpha  occ. eigenvalues --   -0.63614  -0.61914  -0.59088  -0.56172  -0.52400
 Alpha  occ. eigenvalues --   -0.52014  -0.48924  -0.47871  -0.46085  -0.43943
 Alpha  occ. eigenvalues --   -0.43007  -0.39395  -0.36113  -0.35262  -0.30094
 Alpha virt. eigenvalues --    0.00507   0.03488   0.04667   0.05716   0.07229
 Alpha virt. eigenvalues --    0.08988   0.10543   0.13403   0.15197   0.17985
 Alpha virt. eigenvalues --    0.18424   0.19436   0.20458   0.22050   0.22834

 Mulliken charges:
               1
     1  O   -0.397518
     2  N   -0.476453
     3  C    0.511290
     4  C   -0.132964
     5  C    0.136274
     6  C    0.037966
     7  C   -0.138913
     8  H    0.224002
     9  H    0.059792
    10  H    0.053187
    11  H    0.060377
    12  H    0.049800
    13  O   -0.441270
    14  H    0.216341
    15  H    0.238089
 Sum of Mulliken charges =   0.00000

 Dipole moment (field-independent basis, Debye):
    X=             -1.8309    Y=             -1.4370    Z=              1.3210  Tot=              2.6762
 Quadrupole moment (field-independent basis, Debye-Ang):
   XX=            -42.0554   YY=            -45.1447   ZZ=            -49.7492
   XY=             -3.2474   XZ=              5.2695   YZ=             -1.3628

  Exact polarizability:  96.047   2.132  82.889   0.958  -0.188  44.121
 Approx polarizability: 110.036   4.204 105.130   0.983  -0.383  57.009

                      1                      2                      3
                      A                      A                      A
 Frequencies --     70.1027               158.1709               200.8157
 Red. masses --      5.0285                 4.6394                 7.3689
 Frc consts  --      0.0146                 0.0684                 0.1751
 IR Inten    --      4.6940                23.4159                 4.3740

                      4                      5                      6
                      A                      A                      A
 Frequencies --    218.1116               275.5444               397.1868
 Red. masses --      4.3308                 1.1318                 1.2984
 Frc consts  --      0.1214                 0.0506                 0.1207
 IR Inten    --      4.1406               116.8166                64.6860

                      7                      8                      9
                      A                      A                      A
 Frequencies --    442.2573               482.5715               546.4206
 Red. masses --      2.4750                 4.5695                 2.5794
 Frc consts  --      0.2852                 0.6270                 0.4538
 IR Inten    --     27.7796                27.2393                11.6014

                     10                     11                     12
                      A                      A                      A
 Frequencies --    583.1081               655.7360               765.2360
 Red. masses --      7.0663                 6.7238                 1.1705
 Frc consts  --      1.4156                 1.7034                 0.4038
 IR Inten    --      0.7193                 0.4847               177.0280

                     13                     14                     15
                      A                      A                      A
 Frequencies --    769.6169               815.5360               842.1677
 Red. masses --      1.5985                 1.9429                 1.1396
 Frc consts  --      0.5579                 0.7614                 0.4762
 IR Inten    --     50.4968                34.0111               160.9321

                     16                     17                     18
                      A                      A                      A
 Frequencies --    881.1711               903.3276              1007.5277
 Red. masses --      5.7890                 1.4266                 1.3989
 Frc consts  --      2.6483                 0.6859                 0.8366
 IR Inten    --     10.2128                 0.8255                 0.4830

                     19                     20                     21
                      A                      A                      A
 Frequencies --   1030.3969              1034.9031              1079.3676
 Red. masses --      6.7879                 1.3294                 1.9815
 Frc consts  --      4.2461                 0.8389                 1.3601
 IR Inten    --     13.8167                 0.1132                 6.2718

                     22                     23                     24
                      A                      A                      A
 Frequencies --   1138.1563              1175.5935              1276.4328
 Red. masses --      1.5347                 1.1742                 2.2621
 Frc consts  --      1.1714                 0.9561                 2.1715
 IR Inten    --      2.5616                19.0763                71.7664

                     25                     26                     27
                      A                      A                      A
 Frequencies --   1319.5992              1368.5986              1435.9510
 Red. masses --      2.0169                 3.4738                 1.3227
 Frc consts  --      2.0693                 3.8337                 1.6069
 IR Inten    --     28.8975                79.0776               104.4435

                     28                     29                     30
                      A                      A                      A
 Frequencies --   1528.7826              1538.3763              1629.8272
 Red. masses --      2.3216                 2.4593                 1.1750
 Frc consts  --      3.1969                 3.4292                 1.8389
 IR Inten    --     44.8209               149.9213                84.5049

                     31                     32                     33
                      A                      A                      A
 Frequencies --   1660.3821              1696.1076              3189.6109
 Red. masses --      4.2915                 4.7084                 1.0903
 Frc consts  --      6.9706                 7.9805                 6.5351
 IR Inten    --     91.9977               124.4413                11.0233

                     34                     35                     36
                      A                      A                      A
 Frequencies --   3204.8462              3232.6809              3238.0633
 Red. masses --      1.0901                 1.0946                 1.0967
 Frc consts  --      6.5968                 6.7396                 6.7750
 IR Inten    --      6.9205                 6.9873                 0.6367

                     37                     38                     39
                      A                      A                      A
 Frequencies --   3432.7352              3533.4372              3910.9644
 Red. masses --      1.0675                 1.0626                 1.0683
 Frc consts  --      7.4115                 7.8165                 9.6273
 IR Inten    --    138.6790              1322.8391                93.6456

 - Thermochemistry -
 -------------------
 Temperature   298.150 Kelvin.  Pressure   1.00000 Atm.
 Atom     1 has atomic number  8 and mass  15.99491

 Molecular mass:   113.04768 amu.
 Principal axes and moments of inertia in atomic units:
                           1         2         3
     Eigenvalues --   443.825831255.281551695.36069
           X            0.99989  -0.01315   0.00630
           Y            0.01318   0.99990  -0.00437
           Z           -0.00625   0.00445   0.99997
 This molecule is an asymmetric top.
 Rotational symmetry number  1.
 Warning -- assumption of classical behavior for rotation
           may cause significant error
 Rotational temperatures (Kelvin)      0.19515     0.06900     0.05109
 Rotational constants (GHZ):           4.06633     1.43772     1.06452
 Zero-point vibrational energy     315033.1 (Joules/Mol)
                                   75.29472 (Kcal/Mol)
 Warning -- explicit consideration of  10 degrees of freedom as
           vibrations may cause significant error
 Vibrational temperatures:    100.86   227.57   288.93   313.81   396.45
          (Kelvin)            571.46   636.31   694.31   786.18   838.96
                              943.46  1101.00  1107.31  1173.37  1211.69
                             1267.81  1299.69  1449.61  1482.51  1488.99
                             1552.97  1637.55  1691.41  1836.50  1898.61
                             1969.11  2066.01  2199.57  2213.38  2344.95
                             2388.92  2440.32  4589.13  4611.05  4651.10
                             4658.84  4938.93  5083.82  5627.00

 Zero-point correction=                           0.119990 (Hartree/Particle)
 Thermal correction to Energy=                    0.127752
 Thermal correction to Enthalpy=                  0.128697
 Thermal correction to Gibbs Free Energy=         0.087657
 Sum of electronic and zero-point Energies=           -399.838695
 Sum of electronic and thermal Energies=              -399.830932
 Sum of electronic and thermal Enthalpies=            -399.829988
 Sum of electronic and thermal Free Energies=         -399.871028

                     E (Thermal)             CV                S
                      KCal/Mol        Cal/Mol-Kelvin    Cal/Mol-Kelvin
 Total                   80.166             28.705             86.375
 Electronic               0.000              0.000              0.000
 Translational            0.889              2.981             40.084
 Rotational               0.889              2.981             28.337
 Vibrational             78.388             22.743             17.955
 Vibration     1          0.598              1.968              4.150
 Vibration     2          0.621              1.893              2.572
 Vibration     3          0.638              1.839              2.126
 Vibration     4          0.646              1.813              1.975
 Vibration     5          0.677              1.719              1.561
 Vibration     6          0.764              1.476              0.973
 Vibration     7          0.802              1.378              0.820
 Vibration     8          0.839              1.289              0.703
 Vibration     9          0.902              1.148              0.552
 Vibration    10          0.940              1.068              0.480

 Normal termination of Gaussian 09 at Fri Aug 27 00:47:55 2021.
