 Gaussian 09, Revision E.01,
 Gaussian 09:  EM64L-G09RevE.01 30-Nov-2015

 -------------------------
 #p opt freq BHandHLYP/gen
 -------------------------

 -------------------------
 PY_BHandHLYP_PC2_OPT_FREQ
 -------------------------
 Symbolic Z-matrix:
 Charge =  0 Multiplicity = 1

 SCF Done:  E(RBHandHLYP) =  -323.459065957     A.U. after   14 cycles
 SCF Done:  E(RBHandHLYP) =  -323.459684061     A.U. after   11 cycles
 SCF Done:  E(RBHandHLYP) =  -323.459705752     A.U. after    9 cycles
 SCF Done:  E(RBHandHLYP) =  -323.459710611     A.U. after    9 cycles
 Optimization completed.
    -- Stationary point found.
 Normal termination of Gaussian 09 at Fri Aug 27 00:09:18 2021.

 ----------------------------------------------------------------------
 #P Geom=AllCheck Guess=TCheck SCRF=Check GenChk RBHandHLYP/ChkBas Freq
 ----------------------------------------------------------------------

 Structure from the checkpoint file:  "PY_BHandHLYP_PC2_OPT_FREQ.chk"
 -------------------------
 PY_BHandHLYP_PC2_OPT_FREQ
 -------------------------
 Charge =  0 Multiplicity = 1

                         Standard orientation:
 ---------------------------------------------------------------------
 Center     Atomic      Atomic             Coordinates (Angstroms)
 Number     Number       Type             X           Y           Z
 ---------------------------------------------------------------------
      1          8           0       -0.117204    2.255002    0.000000
      2          7           0       -1.125999    0.242954    0.000000
      3          6           0       -0.000000    1.052656    0.000000
      4          6           0        1.238291    0.312317   -0.000000
      5          6           0       -1.114760   -1.108825    0.000000
      6          6           0        1.248969   -1.033190   -0.000000
      7          6           0        0.045285   -1.784958   -0.000000
      8          1           0       -1.994052    0.738198    0.000000
      9          1           0        2.139922    0.891338   -0.000000
     10          1           0       -2.073802   -1.588391    0.000000
     11          1           0        2.188494   -1.554857   -0.000000
     12          1           0        0.052347   -2.854983   -0.000000
 ---------------------------------------------------------------------

 SCF Done:  E(RBHandHLYP) =  -323.459710611     A.U. after    1 cycles

 The electronic state is 1-A'.
 Alpha  occ. eigenvalues --  -19.63024 -14.85825 -10.69117 -10.65372 -10.61481
 Alpha  occ. eigenvalues --  -10.59416 -10.59100  -1.18578  -1.09766  -0.94774
 Alpha  occ. eigenvalues --   -0.87954  -0.75882  -0.74127  -0.65460  -0.59669
 Alpha  occ. eigenvalues --   -0.57509  -0.54526  -0.52337  -0.51235  -0.47121
 Alpha  occ. eigenvalues --   -0.45197  -0.41590  -0.36954  -0.33182  -0.27202
 Alpha virt. eigenvalues --   -0.00931   0.03081   0.05002   0.05354   0.06823
 Alpha virt. eigenvalues --    0.09465   0.10315   0.16186   0.16873   0.17787
 Alpha virt. eigenvalues --    0.18918   0.19025   0.21314   0.22531   0.22577

 Mulliken charges:
               1
     1  O   -0.531702
     2  N   -0.315113
     3  C    0.495385
     4  C   -0.126113
     5  C    0.245728
     6  C    0.075610
     7  C   -0.143349
     8  H    0.154285
     9  H    0.035164
    10  H    0.044957
    11  H    0.039443
    12  H    0.025706
 Sum of Mulliken charges =  -0.00000

 Dipole moment (field-independent basis, Debye):
    X=             -1.2006    Y=             -4.3761    Z=             -0.0000  Tot=              4.5378
 Quadrupole moment (field-independent basis, Debye-Ang):
   XX=            -31.3065   YY=            -48.1549   ZZ=            -43.0925
   XY=              0.0385   XZ=              0.0000   YZ=             -0.0000

  Exact polarizability:  69.521  -0.056  85.487  -0.000   0.000  37.214
 Approx polarizability:  86.275  -1.166 108.735  -0.000   0.000  49.297

                      1                      2                      3
                     A"                     A"                     A'
 Frequencies --    181.2290               404.4356               477.7851
 Red. masses --      5.7791                 3.2653                 6.1183
 Frc consts  --      0.1118                 0.3147                 0.8229
 IR Inten    --      3.3115                 1.3456                 7.3821

                      4                      5                      6
                     A"                     A'                     A'
 Frequencies --    515.4102               570.7441               642.6802
 Red. masses --      2.0705                 7.9091                 6.7521
 Frc consts  --      0.3241                 1.5180                 1.6431
 IR Inten    --     41.2598                 9.1558                 0.3073

                      7                      8                      9
                     A"                     A"                     A"
 Frequencies --    721.9128               776.2397               817.1197
 Red. masses --      1.2922                 1.6324                 1.8235
 Frc consts  --      0.3968                 0.5795                 0.7173
 IR Inten    --     46.4510                 7.1794                71.2585

                     10                     11                     12
                     A'                     A"                     A"
 Frequencies --    857.3714               903.6682              1015.2744
 Red. masses --      5.3066                 1.8447                 1.3111
 Frc consts  --      2.2983                 0.8876                 0.7963
 IR Inten    --     10.1278                25.3823                 0.0287

                     13                     14                     15
                     A'                     A'                     A"
 Frequencies --   1041.1753              1049.8258              1065.4485
 Red. masses --      4.8639                 2.6645                 1.3036
 Frc consts  --      3.1066                 1.7302                 0.8719
 IR Inten    --     14.8131                 6.9568                 0.1639

                     16                     17                     18
                     A'                     A'                     A'
 Frequencies --   1153.9410              1212.4885              1271.0072
 Red. masses --      1.6567                 1.1580                 1.1904
 Frc consts  --      1.2997                 1.0030                 1.1330
 IR Inten    --     18.4074                20.0184                19.6736

                     19                     20                     21
                     A'                     A'                     A'
 Frequencies --   1299.6158              1446.9563              1514.1898
 Red. masses --      2.9525                 1.5045                 1.9917
 Frc consts  --      2.9382                 1.8559                 2.6906
 IR Inten    --     15.5962                 4.4292                10.7632

                     22                     23                     24
                     A'                     A'                     A'
 Frequencies --   1552.7727              1654.3115              1742.1384
 Red. masses --      2.3339                 4.8188                 4.6867
 Frc consts  --      3.3155                 7.7701                 8.3807
 IR Inten    --      3.1423                70.4891                53.5447

                     25                     26                     27
                     A'                     A'                     A'
 Frequencies --   1829.0466              3269.3842              3300.6162
 Red. masses --      7.8849                 1.0899                 1.0908
 Frc consts  --     15.5417                 6.8641                 7.0015
 IR Inten    --    776.1408                 8.8304                 0.8951

                     28                     29                     30
                     A'                     A'                     A'
 Frequencies --   3311.5013              3325.3674              3727.9420
 Red. masses --      1.0946                 1.0981                 1.0782
 Frc consts  --      7.0721                 7.1546                 8.8285
 IR Inten    --      1.0198                 2.4485                76.8282

 - Thermochemistry -
 -------------------
 Temperature   298.150 Kelvin.  Pressure   1.00000 Atm.
 Atom     1 has atomic number  8 and mass  15.99491

 Molecular mass:    95.03711 amu.
 Principal axes and moments of inertia in atomic units:
                           1         2         3
     Eigenvalues --   312.65540 632.20620 944.86160
           X           -0.05424   0.99853   0.00000
           Y            0.99853   0.05424   0.00000
           Z            0.00000   0.00000   1.00000
 This molecule is an asymmetric top.
 Rotational symmetry number  1.
 Rotational temperatures (Kelvin)      0.27703     0.13700     0.09167
 Rotational constants (GHZ):           5.77230     2.85467     1.91006
 Zero-point vibrational energy     255113.2 (Joules/Mol)
                                   60.97352 (Kcal/Mol)
 Warning -- explicit consideration of   5 degrees of freedom as
           vibrations may cause significant error
 Vibrational temperatures:    260.75   581.89   687.43   741.56   821.17
          (Kelvin)            924.67  1038.67  1116.83  1175.65  1233.56
                             1300.18  1460.75  1498.02  1510.46  1532.94
                             1660.26  1744.50  1828.69  1869.85  2081.84
                             2178.58  2234.09  2380.18  2506.55  2631.59
                             4703.91  4748.84  4764.51  4784.46  5363.67

 Zero-point correction=                           0.097167 (Hartree/Particle)
 Thermal correction to Energy=                    0.102250
 Thermal correction to Enthalpy=                  0.103194
 Thermal correction to Gibbs Free Energy=         0.068370
 Sum of electronic and zero-point Energies=           -323.362543
 Sum of electronic and thermal Energies=              -323.357461
 Sum of electronic and thermal Enthalpies=            -323.356517
 Sum of electronic and thermal Free Energies=         -323.391341

                     E (Thermal)             CV                S
                      KCal/Mol        Cal/Mol-Kelvin    Cal/Mol-Kelvin
 Total                   64.163             19.395             73.293
 Electronic               0.000              0.000              0.000
 Translational            0.889              2.981             39.566
 Rotational               0.889              2.981             26.726
 Vibrational             62.385             13.433              7.000
 Vibration     1          0.630              1.865              2.316
 Vibration     2          0.770              1.461              0.946
 Vibration     3          0.834              1.299              0.716
 Vibration     4          0.870              1.216              0.621
 Vibration     5          0.927              1.095              0.503

 Optimization completed.
    -- Stationary point found.
 Normal termination of Gaussian 09 at Fri Aug 27 00:09:54 2021.
