 Gaussian 09, Revision E.01,
 Gaussian 09:  EM64L-G09RevE.01 30-Nov-2015

 ---------------------
 #p opt freq B3LYP/gen
 ---------------------

 ---------------------
 PY_B3LYP_PC2_OPT_FREQ
 ---------------------
 Symbolic Z-matrix:
 Charge =  0 Multiplicity = 1

 SCF Done:  E(RB3LYP) =  -323.659891470     A.U. after   14 cycles
 SCF Done:  E(RB3LYP) =  -323.660163468     A.U. after   10 cycles
 SCF Done:  E(RB3LYP) =  -323.660168610     A.U. after    8 cycles
 SCF Done:  E(RB3LYP) =  -323.660169337     A.U. after    7 cycles
 Optimization completed.
    -- Stationary point found.
 Normal termination of Gaussian 09 at Fri Aug 27 00:07:42 2021.

 ------------------------------------------------------------------
 #P Geom=AllCheck Guess=TCheck SCRF=Check GenChk RB3LYP/ChkBas Freq
 ------------------------------------------------------------------

 Structure from the checkpoint file:  "PY_B3LYP_PC2_OPT_FREQ.chk"
 ---------------------
 PY_B3LYP_PC2_OPT_FREQ
 ---------------------
 Charge =  0 Multiplicity = 1

                         Standard orientation:
 ---------------------------------------------------------------------
 Center     Atomic      Atomic             Coordinates (Angstroms)
 Number     Number       Type             X           Y           Z
 ---------------------------------------------------------------------
      1          8           0       -0.130873    2.278254   -0.000000
      2          7           0       -1.136919    0.233910   -0.000000
      3          6           0       -0.000000    1.063527   -0.000000
      4          6           0        1.243050    0.321635    0.000000
      5          6           0       -1.119158   -1.125333    0.000000
      6          6           0        1.261431   -1.037717    0.000000
      7          6           0        0.059514   -1.797578    0.000000
      8          1           0       -2.015363    0.730536   -0.000000
      9          1           0        2.149898    0.907442    0.000000
     10          1           0       -2.081924   -1.615114   -0.000000
     11          1           0        2.210878   -1.557929    0.000000
     12          1           0        0.072907   -2.875538    0.000000
 ---------------------------------------------------------------------

 SCF Done:  E(RB3LYP) =  -323.660169337     A.U. after    1 cycles

 The electronic state is 1-A'.
 Alpha  occ. eigenvalues --  -19.08352 -14.37992 -10.27802 -10.24455 -10.20620
 Alpha  occ. eigenvalues --  -10.19032 -10.18679  -1.04251  -0.96676  -0.83036
 Alpha  occ. eigenvalues --   -0.76881  -0.66407  -0.64732  -0.57266  -0.51702
 Alpha  occ. eigenvalues --   -0.49791  -0.47218  -0.45035  -0.43492  -0.40039
 Alpha  occ. eigenvalues --   -0.38665  -0.35569  -0.32026  -0.26376  -0.23276
 Alpha virt. eigenvalues --   -0.05711  -0.00333   0.00057   0.02606   0.04034
 Alpha virt. eigenvalues --    0.06609   0.07581   0.11436   0.12335   0.14237
 Alpha virt. eigenvalues --    0.14592   0.15320   0.17236   0.18618   0.18772

 Mulliken charges:
               1
     1  O   -0.482080
     2  N   -0.263042
     3  C    0.420541
     4  C   -0.127310
     5  C    0.180909
     6  C    0.034358
     7  C   -0.131488
     8  H    0.156016
     9  H    0.053931
    10  H    0.057415
    11  H    0.054644
    12  H    0.046107
 Sum of Mulliken charges =   0.00000

 Dipole moment (field-independent basis, Debye):
    X=             -1.1900    Y=             -4.2546    Z=             -0.0000  Tot=              4.4179
 Quadrupole moment (field-independent basis, Debye-Ang):
   XX=            -31.7337   YY=            -48.1829   ZZ=            -43.1702
   XY=              0.1733   XZ=             -0.0000   YZ=              0.0000

  Exact polarizability:  73.411   0.066  89.934   0.000   0.000  37.997
 Approx polarizability: 117.109  -0.223 152.852   0.000  -0.000  57.597

                      1                      2                      3
                     A"                     A"                     A'
 Frequencies --    171.8630               391.0343               459.1364
 Red. masses --      5.7763                 3.2935                 6.1208
 Frc consts  --      0.1005                 0.2967                 0.7602
 IR Inten    --      3.1682                 1.2974                 6.4171

                      4                      5                      6
                     A"                     A'                     A'
 Frequencies --    491.3932               550.0600               619.9942
 Red. masses --      2.0579                 7.9582                 6.7753
 Frc consts  --      0.2928                 1.4187                 1.5345
 IR Inten    --     38.3534                 7.0977                 0.7655

                      7                      8                      9
                     A"                     A"                     A"
 Frequencies --    700.3345               740.8663               777.1472
 Red. masses --      1.3316                 1.7206                 1.8069
 Frc consts  --      0.3848                 0.5564                 0.6430
 IR Inten    --     43.2398                 3.8137                67.9766

                     10                     11                     12
                     A'                     A"                     A"
 Frequencies --    819.1649               861.4328               954.8213
 Red. masses --      5.2279                 1.7169                 1.3034
 Frc consts  --      2.0669                 0.7507                 0.7001
 IR Inten    --      9.4140                18.0345                 0.0386

                     13                     14                     15
                     A'                     A"                     A'
 Frequencies --   1004.4003              1011.5848              1019.3015
 Red. masses --      4.7061                 1.2967                 2.8724
 Frc consts  --      2.7972                 0.7818                 1.7583
 IR Inten    --     13.3085                 0.0827                 5.4926

                     16                     17                     18
                     A'                     A'                     A'
 Frequencies --   1111.6276              1167.2642              1224.6801
 Red. masses --      1.6953                 1.2886                 1.4029
 Frc consts  --      1.2343                 1.0345                 1.2398
 IR Inten    --     17.5202                20.3823                 5.9496

                     19                     20                     21
                     A'                     A'                     A'
 Frequencies --   1239.5852              1391.7114              1455.4487
 Red. masses --      1.7903                 1.4703                 2.0462
 Frc consts  --      1.6208                 1.6779                 2.5539
 IR Inten    --     23.5660                 3.3852                 7.8015

                     22                     23                     24
                     A'                     A'                     A'
 Frequencies --   1492.7801              1580.1624              1661.3426
 Red. masses --      2.2661                 4.9176                 4.4644
 Frc consts  --      2.9753                 7.2345                 7.2599
 IR Inten    --      1.5390                51.6422                48.2155

                     25                     26                     27
                     A'                     A'                     A'
 Frequencies --   1743.1147              3172.9043              3203.6659
 Red. masses --      7.7189                 1.0891                 1.0903
 Frc consts  --     13.8183                 6.4600                 6.5931
 IR Inten    --    649.7869                10.0297                 1.6304

                     28                     29                     30
                     A'                     A'                     A'
 Frequencies --   3214.6038              3229.3516              3593.7846
 Red. masses --      1.0933                 1.0967                 1.0778
 Frc consts  --      6.6566                 6.7386                 8.2014
 IR Inten    --      1.7274                 2.9525                60.1898

 - Thermochemistry -
 -------------------
 Temperature   298.150 Kelvin.  Pressure   1.00000 Atm.
 Atom     1 has atomic number  8 and mass  15.99491

 Molecular mass:    95.03711 amu.
 Principal axes and moments of inertia in atomic units:
                           1         2         3
     Eigenvalues --   317.17400 644.17481 961.34881
           X           -0.05875   0.99827   0.00000
           Y            0.99827   0.05875   0.00000
           Z            0.00000   0.00000   1.00000
 This molecule is an asymmetric top.
 Rotational symmetry number  1.
 Rotational temperatures (Kelvin)      0.27308     0.13446     0.09010
 Rotational constants (GHZ):           5.69007     2.80163     1.87730
 Zero-point vibrational energy     245560.8 (Joules/Mol)
                                   58.69044 (Kcal/Mol)
 Warning -- explicit consideration of   6 degrees of freedom as
           vibrations may cause significant error
 Vibrational temperatures:    247.27   562.61   660.59   707.00   791.41
          (Kelvin)            892.03  1007.62  1065.94  1118.14  1178.59
                             1239.41  1373.77  1445.11  1455.44  1466.55
                             1599.38  1679.43  1762.04  1783.48  2002.36
                             2094.06  2147.77  2273.50  2390.30  2507.95
                             4565.10  4609.35  4625.09  4646.31  5170.65

 Zero-point correction=                           0.093529 (Hartree/Particle)
 Thermal correction to Energy=                    0.098791
 Thermal correction to Enthalpy=                  0.099735
 Thermal correction to Gibbs Free Energy=         0.064606
 Sum of electronic and zero-point Energies=           -323.566640
 Sum of electronic and thermal Energies=              -323.561379
 Sum of electronic and thermal Enthalpies=            -323.560435
 Sum of electronic and thermal Free Energies=         -323.595563

                     E (Thermal)             CV                S
                      KCal/Mol        Cal/Mol-Kelvin    Cal/Mol-Kelvin
 Total                   61.992             20.306             73.934
 Electronic               0.000              0.000              0.000
 Translational            0.889              2.981             39.566
 Rotational               0.889              2.981             26.777
 Vibrational             60.215             14.344              7.592
 Vibration     1          0.626              1.877              2.415
 Vibration     2          0.759              1.489              0.996
 Vibration     3          0.817              1.341              0.769
 Vibration     4          0.847              1.269              0.680
 Vibration     5          0.905              1.140              0.544
 Vibration     6          0.980              0.990              0.417

 Optimization completed.
    -- Stationary point found.
 Normal termination of Gaussian 09 at Fri Aug 27 00:08:20 2021.
