 Gaussian 09, Revision E.01,
 Gaussian 09:  EM64L-G09RevE.01 30-Nov-2015

 --------------------
 #p opt freq BP86/gen
 --------------------

 --------------------
 PY_BP86_PC2_OPT_FREQ
 --------------------
 Symbolic Z-matrix:
 Charge =  0 Multiplicity = 1

 SCF Done:  E(RB-P86) =  -323.659405535     A.U. after   17 cycles
 SCF Done:  E(RB-P86) =  -323.661315151     A.U. after   12 cycles
 SCF Done:  E(RB-P86) =  -323.661343887     A.U. after    9 cycles
 SCF Done:  E(RB-P86) =  -323.661350136     A.U. after    9 cycles
 Optimization completed.
    -- Stationary point found.
 Normal termination of Gaussian 09 at Fri Aug 27 00:01:15 2021.

 -----------------------------------------------------------------
 #P Geom=AllCheck Guess=TCheck SCRF=Check GenChk RBP86/ChkBas Freq
 -----------------------------------------------------------------

 Structure from the checkpoint file:  "PY_BP86_PC2_OPT_FREQ.chk"
 --------------------
 PY_BP86_PC2_OPT_FREQ
 --------------------
 Charge =  0 Multiplicity = 1

                         Standard orientation:
 ---------------------------------------------------------------------
 Center     Atomic      Atomic             Coordinates (Angstroms)
 Number     Number       Type             X           Y           Z
 ---------------------------------------------------------------------
      1          8           0       -0.143169    2.296215    0.000000
      2          7           0       -1.143593    0.226833    0.000000
      3          6           0       -0.000000    1.071939    0.000000
      4          6           0        1.246737    0.329216   -0.000000
      5          6           0       -1.122475   -1.137061    0.000000
      6          6           0        1.271146   -1.041605   -0.000000
      7          6           0        0.070376   -1.808185   -0.000000
      8          1           0       -2.031009    0.726478    0.000000
      9          1           0        2.160075    0.922180   -0.000000
     10          1           0       -2.091563   -1.634998    0.000000
     11          1           0        2.231246   -1.561819   -0.000000
     12          1           0        0.087046   -2.895217   -0.000000
 ---------------------------------------------------------------------

 SCF Done:  E(RB-P86) =  -323.661350136     A.U. after    1 cycles

 The electronic state is 1-A'.
 Alpha  occ. eigenvalues --  -18.72978 -14.06634  -9.99792  -9.96924  -9.93204
 Alpha  occ. eigenvalues --   -9.91912  -9.91515  -0.95043  -0.88235  -0.75395
 Alpha  occ. eigenvalues --   -0.69650  -0.60109  -0.58504  -0.51726  -0.46299
 Alpha  occ. eigenvalues --   -0.44476  -0.42141  -0.40192  -0.38294  -0.35073
 Alpha  occ. eigenvalues --   -0.34054  -0.31550  -0.28710  -0.21782  -0.20631
 Alpha virt. eigenvalues --   -0.08716  -0.03699  -0.00947   0.01922   0.03292
 Alpha virt. eigenvalues --    0.05740   0.06739   0.07238   0.10261   0.12532
 Alpha virt. eigenvalues --    0.13444   0.13611   0.14980   0.16765   0.17332

 Mulliken charges:
               1
     1  O   -0.458301
     2  N   -0.265194
     3  C    0.399394
     4  C   -0.144927
     5  C    0.155598
     6  C    0.015408
     7  C   -0.146689
     8  H    0.170417
     9  H    0.070592
    10  H    0.074228
    11  H    0.067611
    12  H    0.061863
 Sum of Mulliken charges =   0.00000

 Dipole moment (field-independent basis, Debye):
    X=             -1.1984    Y=             -4.1093    Z=              0.0000  Tot=              4.2805
 Quadrupole moment (field-independent basis, Debye-Ang):
   XX=            -31.6902   YY=            -47.6933   ZZ=            -43.1726
   XY=              0.2662   XZ=             -0.0000   YZ=             -0.0000

  Exact polarizability:  76.554   0.100  93.688  -0.000   0.000  38.720
 Approx polarizability: 152.463   2.009 206.269  -0.000   0.000  64.085

                      1                      2                      3
                     A"                     A"                     A'
 Frequencies --    161.0909               376.9993               440.1331
 Red. masses --      5.7943                 3.3376                 6.0721
 Frc consts  --      0.0886                 0.2795                 0.6930
 IR Inten    --      2.8287                 1.2345                 5.9159

                      4                      5                      6
                     A"                     A'                     A'
 Frequencies --    467.5295               529.7937               597.3195
 Red. masses --      2.0460                 7.8946                 6.7592
 Frc consts  --      0.2635                 1.3056                 1.4209
 IR Inten    --     37.5294                 5.3629                 1.1807

                      7                      8                      9
                     A"                     A"                     A"
 Frequencies --    682.0202               710.3621               743.9071
 Red. masses --      1.3790                 1.7877                 1.7723
 Frc consts  --      0.3779                 0.5315                 0.5779
 IR Inten    --     38.7720                 2.6347                66.3693

                     10                     11                     12
                     A'                     A"                     A"
 Frequencies --    791.3230               825.3996               904.6310
 Red. masses --      5.1459                 1.6503                 1.2925
 Frc consts  --      1.8985                 0.6624                 0.6232
 IR Inten    --      8.3529                14.3743                 0.0404

                     13                     14                     15
                     A"                     A'                     A'
 Frequencies --    963.5584               971.3226               997.7262
 Red. masses --      1.2831                 4.8360                 2.8066
 Frc consts  --      0.7019                 2.6882                 1.6461
 IR Inten    --      0.0387                12.4727                 3.6195

                     16                     17                     18
                     A'                     A'                     A'
 Frequencies --   1076.9284              1125.4376              1183.9016
 Red. masses --      1.6774                 1.3079                 1.3741
 Frc consts  --      1.1462                 0.9761                 1.1347
 IR Inten    --     17.4940                17.9032                 4.1275

                     19                     20                     21
                     A'                     A'                     A'
 Frequencies --   1200.7787              1341.0656              1405.8802
 Red. masses --      1.6630                 1.4761                 2.0632
 Frc consts  --      1.4127                 1.5641                 2.4026
 IR Inten    --     22.3402                 1.7839                 4.1365

                     22                     23                     24
                     A'                     A'                     A'
 Frequencies --   1444.7429              1531.5267              1604.2013
 Red. masses --      2.4046                 5.4787                 4.6130
 Frc consts  --      2.9571                 7.5715                 6.9944
 IR Inten    --      1.2946                41.4309                41.7144

                     25                     26                     27
                     A'                     A'                     A'
 Frequencies --   1689.4774              3092.1770              3121.6401
 Red. masses --      7.8865                 1.0885                 1.0902
 Frc consts  --     13.2629                 6.1321                 6.2595
 IR Inten    --    563.8536                11.1543                 2.6863

                     28                     29                     30
                     A'                     A'                     A'
 Frequencies --   3135.5342              3151.7506              3490.0581
 Red. masses --      1.0927                 1.0959                 1.0774
 Frc consts  --      6.3295                 6.4138                 7.7323
 IR Inten    --      2.1270                 3.0584                47.1396

 - Thermochemistry -
 -------------------
 Temperature   298.150 Kelvin.  Pressure   1.00000 Atm.
 Atom     1 has atomic number  8 and mass  15.99491

 Molecular mass:    95.03711 amu.
 Principal axes and moments of inertia in atomic units:
                           1         2         3
     Eigenvalues --   320.63243 653.74413 974.37656
           X           -0.06281   0.99803   0.00000
           Y            0.99803   0.06281   0.00000
           Z            0.00000   0.00000   1.00000
 This molecule is an asymmetric top.
 Rotational symmetry number  1.
 Rotational temperatures (Kelvin)      0.27013     0.13249     0.08889
 Rotational constants (GHZ):           5.62869     2.76062     1.85220
 Zero-point vibrational energy     237806.9 (Joules/Mol)
                                   56.83722 (Kcal/Mol)
 Warning -- explicit consideration of   6 degrees of freedom as
           vibrations may cause significant error
 Vibrational temperatures:    231.77   542.42   633.25   672.67   762.25
          (Kelvin)            859.41   981.27  1022.05  1070.32  1138.54
                             1187.56  1301.56  1386.34  1397.51  1435.50
                             1549.46  1619.25  1703.37  1727.65  1929.49
                             2022.75  2078.66  2203.52  2308.09  2430.78
                             4448.95  4491.34  4511.33  4534.66  5021.41

 Zero-point correction=                           0.090576 (Hartree/Particle)
 Thermal correction to Energy=                    0.096019
 Thermal correction to Enthalpy=                  0.096963
 Thermal correction to Gibbs Free Energy=         0.061519
 Sum of electronic and zero-point Energies=           -323.570774
 Sum of electronic and thermal Energies=              -323.565331
 Sum of electronic and thermal Enthalpies=            -323.564387
 Sum of electronic and thermal Free Energies=         -323.599831

                     E (Thermal)             CV                S
                      KCal/Mol        Cal/Mol-Kelvin    Cal/Mol-Kelvin
 Total                   60.253             21.156             74.598
 Electronic               0.000              0.000              0.000
 Translational            0.889              2.981             39.566
 Rotational               0.889              2.981             26.815
 Vibrational             58.475             15.194              8.217
 Vibration     1          0.622              1.890              2.537
 Vibration     2          0.748              1.519              1.051
 Vibration     3          0.800              1.383              0.826
 Vibration     4          0.825              1.322              0.745
 Vibration     5          0.885              1.184              0.588
 Vibration     6          0.955              1.037              0.454

 Optimization completed.
    -- Stationary point found.
 Normal termination of Gaussian 09 at Fri Aug 27 00:01:53 2021.
