 Gaussian 09, Revision E.01,
 Gaussian 09:  EM64L-G09RevE.01 30-Nov-2015

 -------------------------
 #p opt freq CAM-B3LYP/gen
 -------------------------

 -------------------------
 PY_CAM-B3LYP_PC2_OPT_FREQ
 -------------------------
 Symbolic Z-matrix:
 Charge =  0 Multiplicity = 1

 SCF Done:  E(RCAM-B3LYP) =  -323.500057663     A.U. after   14 cycles
 SCF Done:  E(RCAM-B3LYP) =  -323.500119000     A.U. after    9 cycles
 SCF Done:  E(RCAM-B3LYP) =  -323.500132626     A.U. after    9 cycles
 Optimization completed.
    -- Stationary point found.
 Normal termination of Gaussian 09 at Fri Aug 27 00:10:49 2021.

 ----------------------------------------------------------------------
 #P Geom=AllCheck Guess=TCheck SCRF=Check GenChk RCAM-B3LYP/ChkBas Freq
 ----------------------------------------------------------------------

 Structure from the checkpoint file:  "PY_CAM-B3LYP_PC2_OPT_FREQ.chk"
 -------------------------
 PY_CAM-B3LYP_PC2_OPT_FREQ
 -------------------------
 Charge =  0 Multiplicity = 1

                         Standard orientation:
 ---------------------------------------------------------------------
 Center     Atomic      Atomic             Coordinates (Angstroms)
 Number     Number       Type             X           Y           Z
 ---------------------------------------------------------------------
      1          8           0       -0.123570    2.267366    0.000000
      2          7           0       -1.131370    0.239206    0.000000
      3          6           0       -0.000000    1.056907    0.000000
      4          6           0        1.241078    0.315698   -0.000000
      5          6           0       -1.116518   -1.117371   -0.000000
      6          6           0        1.254885   -1.034954   -0.000000
      7          6           0        0.051199   -1.791082   -0.000000
      8          1           0       -2.006376    0.739740    0.000000
      9          1           0        2.147781    0.900154   -0.000000
     10          1           0       -2.080551   -1.603061    0.000000
     11          1           0        2.202268   -1.557110   -0.000000
     12          1           0        0.061169   -2.868282   -0.000000
 ---------------------------------------------------------------------

 SCF Done:  E(RCAM-B3LYP) =  -323.500132626     A.U. after    1 cycles

 The electronic state is 1-A'.
 Alpha  occ. eigenvalues --  -19.15425 -14.45040 -10.35271 -10.31669 -10.27875
 Alpha  occ. eigenvalues --  -10.26031 -10.25722  -1.12707  -1.04918  -0.91326
 Alpha  occ. eigenvalues --   -0.84932  -0.73962  -0.72300  -0.64403  -0.58755
 Alpha  occ. eigenvalues --   -0.56646  -0.53905  -0.52460  -0.50227  -0.46501
 Alpha  occ. eigenvalues --   -0.44887  -0.42174  -0.38012  -0.32750  -0.28457
 Alpha virt. eigenvalues --   -0.00806   0.03643   0.04747   0.05943   0.07387
 Alpha virt. eigenvalues --    0.09997   0.10842   0.16678   0.16971   0.18260
 Alpha virt. eigenvalues --    0.18972   0.19447   0.21634   0.22865   0.23006

 Mulliken charges:
               1
     1  O   -0.477651
     2  N   -0.268097
     3  C    0.418293
     4  C   -0.140955
     5  C    0.182454
     6  C    0.032399
     7  C   -0.145619
     8  H    0.160283
     9  H    0.061142
    10  H    0.062461
    11  H    0.062602
    12  H    0.052687
 Sum of Mulliken charges =  -0.00000

 Dipole moment (field-independent basis, Debye):
    X=             -1.1945    Y=             -4.3062    Z=             -0.0000  Tot=              4.4688
 Quadrupole moment (field-independent basis, Debye-Ang):
   XX=            -31.6407   YY=            -48.3225   ZZ=            -43.2450
   XY=              0.0925   XZ=              0.0000   YZ=             -0.0000

  Exact polarizability:  71.488  -0.078  88.007  -0.000   0.000  37.646
 Approx polarizability:  87.069  -1.273 110.439  -0.000   0.000  48.734

                      1                      2                      3
                     A"                     A"                     A'
 Frequencies --    174.2056               394.1918               464.8002
 Red. masses --      5.7298                 3.2557                 6.0894
 Frc consts  --      0.1025                 0.2981                 0.7751
 IR Inten    --      3.3304                 1.2198                 6.9441

                      4                      5                      6
                     A"                     A'                     A'
 Frequencies --    500.2151               556.4137               627.1125
 Red. masses --      2.0517                 7.9036                 6.7541
 Frc consts  --      0.3025                 1.4417                 1.5650
 IR Inten    --     39.8988                 7.9190                 0.4213

                      7                      8                      9
                     A"                     A"                     A"
 Frequencies --    707.1545               753.4294               792.2599
 Red. masses --      1.3183                 1.6007                 1.8554
 Frc consts  --      0.3884                 0.5354                 0.6862
 IR Inten    --     46.4267                 5.7250                67.4340

                     10                     11                     12
                     A'                     A"                     A"
 Frequencies --    837.5073               876.3096               982.2422
 Red. masses --      5.2036                 1.8126                 1.3155
 Frc consts  --      2.1505                 0.8201                 0.7478
 IR Inten    --      9.7305                22.2971                 0.0262

                     13                     14                     15
                     A'                     A'                     A"
 Frequencies --   1014.8642              1029.9493              1032.4738
 Red. masses --      4.8412                 2.6418                 1.3066
 Frc consts  --      2.9378                 1.6511                 0.8206
 IR Inten    --     14.0461                 6.5435                 0.1151

                     16                     17                     18
                     A'                     A'                     A'
 Frequencies --   1125.6437              1180.2733              1236.0159
 Red. masses --      1.6206                 1.1596                 1.1805
 Frc consts  --      1.2098                 0.9518                 1.0626
 IR Inten    --     18.6976                18.3195                15.9996

                     19                     20                     21
                     A'                     A'                     A'
 Frequencies --   1265.4870              1404.9644              1471.3968
 Red. masses --      2.7782                 1.4945                 2.0283
 Frc consts  --      2.6214                 1.7381                 2.5873
 IR Inten    --     17.0822                 3.0158                 7.3381

                     22                     23                     24
                     A'                     A'                     A'
 Frequencies --   1512.4437              1616.4330              1700.5771
 Red. masses --      2.4176                 5.2538                 4.9292
 Frc consts  --      3.2584                 8.0880                 8.3988
 IR Inten    --      2.2499                68.7285                56.7800

                     25                     26                     27
                     A'                     A'                     A'
 Frequencies --   1780.9678              3199.1251              3228.3595
 Red. masses --      8.0434                 1.0899                 1.0910
 Frc consts  --     15.0315                 6.5720                 6.6992
 IR Inten    --    707.0470                 7.8291                 0.7698

                     28                     29                     30
                     A'                     A'                     A'
 Frequencies --   3239.7225              3253.3735              3625.1400
 Red. masses --      1.0945                 1.0980                 1.0780
 Frc consts  --      6.7681                 6.8472                 8.3466
 IR Inten    --      0.6956                 1.7976                72.9612

 - Thermochemistry -
 -------------------
 Temperature   298.150 Kelvin.  Pressure   1.00000 Atm.
 Atom     1 has atomic number  8 and mass  15.99491

 Molecular mass:    95.03711 amu.
 Principal axes and moments of inertia in atomic units:
                           1         2         3
     Eigenvalues --   315.00894 638.30543 953.31436
           X           -0.05629   0.99841   0.00000
           Y            0.99841   0.05629   0.00000
           Z            0.00000   0.00000   1.00000
 This molecule is an asymmetric top.
 Rotational symmetry number  1.
 Rotational temperatures (Kelvin)      0.27496     0.13569     0.09086
 Rotational constants (GHZ):           5.72917     2.82739     1.89312
 Zero-point vibrational energy     248721.9 (Joules/Mol)
                                   59.44596 (Kcal/Mol)
 Warning -- explicit consideration of   5 degrees of freedom as
           vibrations may cause significant error
 Vibrational temperatures:    250.64   567.15   668.74   719.70   800.55
          (Kelvin)            902.27  1017.44  1084.02  1139.88  1204.98
                             1260.81  1413.23  1460.16  1481.87  1485.50
                             1619.55  1698.15  1778.35  1820.75  2021.43
                             2117.01  2176.07  2325.68  2446.75  2562.41
                             4602.82  4644.88  4661.23  4680.87  5215.76

 Zero-point correction=                           0.094733 (Hartree/Particle)
 Thermal correction to Energy=                    0.099932
 Thermal correction to Enthalpy=                  0.100876
 Thermal correction to Gibbs Free Energy=         0.065854
 Sum of electronic and zero-point Energies=           -323.405399
 Sum of electronic and thermal Energies=              -323.400201
 Sum of electronic and thermal Enthalpies=            -323.399256
 Sum of electronic and thermal Free Energies=         -323.434279

                     E (Thermal)             CV                S
                      KCal/Mol        Cal/Mol-Kelvin    Cal/Mol-Kelvin
 Total                   62.708             19.975             73.710
 Electronic               0.000              0.000              0.000
 Translational            0.889              2.981             39.566
 Rotational               0.889              2.981             26.752
 Vibrational             60.931             14.013              7.392
 Vibration     1          0.627              1.874              2.390
 Vibration     2          0.761              1.483              0.984
 Vibration     3          0.822              1.328              0.752
 Vibration     4          0.856              1.250              0.658
 Vibration     5          0.912              1.126              0.531

 Normal termination of Gaussian 09 at Fri Aug 27 00:11:40 2021.
