 Gaussian 09, Revision E.01,
 Gaussian 09:  EM64L-G09RevE.01 30-Nov-2015

 ---------------------
 #p opt freq M062X/gen
 ---------------------

 ---------------------
 PY_M062X_PC2_OPT_FREQ
 ---------------------
 Symbolic Z-matrix:
 Charge =  0 Multiplicity = 1

 SCF Done:  E(RM062X) =  -323.521531729     A.U. after   15 cycles
 SCF Done:  E(RM062X) =  -323.521610095     A.U. after    9 cycles
 SCF Done:  E(RM062X) =  -323.521617192     A.U. after    9 cycles
 SCF Done:  E(RM062X) =  -323.521618451     A.U. after    8 cycles
 Optimization completed.
    -- Stationary point found.
 Normal termination of Gaussian 09 at Fri Aug 27 00:17:42 2021.

 ------------------------------------------------------------------
 #P Geom=AllCheck Guess=TCheck SCRF=Check GenChk RM062X/ChkBas Freq
 ------------------------------------------------------------------

 Structure from the checkpoint file:  "PY_M062X_PC2_OPT_FREQ.chk"
 ---------------------
 PY_M062X_PC2_OPT_FREQ
 ---------------------
 Charge =  0 Multiplicity = 1

                         Standard orientation:
 ---------------------------------------------------------------------
 Center     Atomic      Atomic             Coordinates (Angstroms)
 Number     Number       Type             X           Y           Z
 ---------------------------------------------------------------------
      1          8           0       -0.124261    2.270076    0.000000
      2          7           0       -1.132066    0.239595    0.000000
      3          6           0       -0.000000    1.060722    0.000000
      4          6           0        1.244325    0.316012   -0.000000
      5          6           0       -1.119008   -1.118372   -0.000000
      6          6           0        1.256819   -1.037311   -0.000000
      7          6           0        0.050812   -1.795301   -0.000000
      8          1           0       -2.007755    0.740535    0.000000
      9          1           0        2.150593    0.902244   -0.000000
     10          1           0       -2.084992   -1.601705   -0.000000
     11          1           0        2.204229   -1.560906   -0.000000
     12          1           0        0.058789   -2.872444   -0.000000
 ---------------------------------------------------------------------

 SCF Done:  E(RM062X) =  -323.521618451     A.U. after    1 cycles

 The electronic state is 1-A'.
 Alpha  occ. eigenvalues --  -19.58389 -14.80960 -10.64561 -10.60952 -10.57055
 Alpha  occ. eigenvalues --  -10.55253 -10.55008  -1.16599  -1.07729  -0.92926
 Alpha  occ. eigenvalues --   -0.86357  -0.74749  -0.72966  -0.64716  -0.58725
 Alpha  occ. eigenvalues --   -0.56729  -0.53884  -0.52759  -0.50877  -0.46386
 Alpha  occ. eigenvalues --   -0.44521  -0.42391  -0.37706  -0.33559  -0.28043
 Alpha virt. eigenvalues --   -0.01763   0.02674   0.03819   0.04768   0.06157
 Alpha virt. eigenvalues --    0.08642   0.09330   0.15748   0.16211   0.17205
 Alpha virt. eigenvalues --    0.18347   0.18479   0.20521   0.22023   0.22310

 Mulliken charges:
               1
     1  O   -0.515054
     2  N   -0.354413
     3  C    0.537799
     4  C   -0.155078
     5  C    0.277606
     6  C    0.094793
     7  C   -0.160005
     8  H    0.148162
     9  H    0.032244
    10  H    0.040942
    11  H    0.034069
    12  H    0.018934
 Sum of Mulliken charges =  -0.00000

 Dipole moment (field-independent basis, Debye):
    X=             -1.2034    Y=             -4.2246    Z=             -0.0000  Tot=              4.3927
 Quadrupole moment (field-independent basis, Debye-Ang):
   XX=            -31.3663   YY=            -47.8401   ZZ=            -43.2642
   XY=              0.1081   XZ=             -0.0000   YZ=             -0.0000

  Exact polarizability:  71.258  -0.032  88.131   0.000   0.000  37.597
 Approx polarizability:  89.538  -1.097 113.902  -0.000   0.000  49.269

                      1                      2                      3
                     A"                     A"                     A'
 Frequencies --    174.5813               386.8395               463.4041
 Red. masses --      5.7438                 3.2740                 6.1058
 Frc consts  --      0.1031                 0.2887                 0.7725
 IR Inten    --      3.1555                 1.4594                 6.8105

                      4                      5                      6
                     A"                     A'                     A'
 Frequencies --    492.1005               550.5126               619.8849
 Red. masses --      2.0587                 7.8384                 6.7395
 Frc consts  --      0.2937                 1.3996                 1.5258
 IR Inten    --     39.9349                 8.1125                 0.2955

                      7                      8                      9
                     A"                     A"                     A"
 Frequencies --    705.3244               752.8124               787.8342
 Red. masses --      1.3311                 1.6328                 1.9439
 Frc consts  --      0.3902                 0.5452                 0.7109
 IR Inten    --     46.3962                 5.0155                66.2915

                     10                     11                     12
                     A'                     A"                     A"
 Frequencies --    836.5501               878.2377               969.1750
 Red. masses --      5.2213                 1.7070                 1.3124
 Frc consts  --      2.1528                 0.7757                 0.7263
 IR Inten    --      9.9081                22.4001                 0.0821

                     13                     14                     15
                     A'                     A'                     A"
 Frequencies --    999.8559              1027.4955              1027.7746
 Red. masses --      5.2377                 2.5158                 1.2860
 Frc consts  --      3.0851                 1.5649                 0.8004
 IR Inten    --     16.7995                 4.4843                 0.2426

                     16                     17                     18
                     A'                     A'                     A'
 Frequencies --   1122.4268              1172.7279              1229.2086
 Red. masses --      1.5952                 1.1477                 1.1799
 Frc consts  --      1.1841                 0.9300                 1.0504
 IR Inten    --     17.4817                18.1926                15.4213

                     19                     20                     21
                     A'                     A'                     A'
 Frequencies --   1258.4915              1392.4578              1461.7504
 Red. masses --      2.6191                 1.5146                 2.0111
 Frc consts  --      2.4441                 1.7303                 2.5318
 IR Inten    --     19.9223                 2.8301                 7.5300

                     22                     23                     24
                     A'                     A'                     A'
 Frequencies --   1505.0799              1613.5538              1699.8711
 Red. masses --      2.5367                 5.3060                 5.2188
 Frc consts  --      3.3856                 8.1393                 8.8850
 IR Inten    --      3.7651                80.2081                44.9429

                     25                     26                     27
                     A'                     A'                     A'
 Frequencies --   1792.2134              3184.8220              3203.9286
 Red. masses --      8.5003                 1.0905                 1.0926
 Frc consts  --     16.0866                 6.5172                 6.6081
 IR Inten    --    749.3581                 7.1151                 1.0085

                     28                     29                     30
                     A'                     A'                     A'
 Frequencies --   3245.4308              3248.1002              3614.1688
 Red. masses --      1.0952                 1.0955                 1.0782
 Frc consts  --      6.7968                 6.8098                 8.2975
 IR Inten    --      1.2911                 0.0153                77.1191

 - Thermochemistry -
 -------------------
 Temperature   298.150 Kelvin.  Pressure   1.00000 Atm.
 Atom     1 has atomic number  8 and mass  15.99491

 Molecular mass:    95.03711 amu.
 Principal axes and moments of inertia in atomic units:
                           1         2         3
     Eigenvalues --   316.04184 640.46157 956.50341
           X           -0.05637   0.99841   0.00000
           Y            0.99841   0.05637   0.00000
           Z            0.00000   0.00000   1.00000
 This molecule is an asymmetric top.
 Rotational symmetry number  1.
 Rotational temperatures (Kelvin)      0.27406     0.13524     0.09055
 Rotational constants (GHZ):           5.71045     2.81788     1.88681
 Zero-point vibrational energy     247726.4 (Joules/Mol)
                                   59.20802 (Kcal/Mol)
 Warning -- explicit consideration of   6 degrees of freedom as
           vibrations may cause significant error
 Vibrational temperatures:    251.18   556.58   666.73   708.02   792.06
          (Kelvin)            891.87  1014.80  1083.13  1133.52  1203.61
                             1263.59  1394.42  1438.57  1478.34  1478.74
                             1614.92  1687.29  1768.55  1810.69  2003.43
                             2103.13  2165.47  2321.54  2445.73  2578.59
                             4582.24  4609.73  4669.45  4673.29  5199.98

 Zero-point correction=                           0.094354 (Hartree/Particle)
 Thermal correction to Energy=                    0.099584
 Thermal correction to Enthalpy=                  0.100528
 Thermal correction to Gibbs Free Energy=         0.065455
 Sum of electronic and zero-point Energies=           -323.427264
 Sum of electronic and thermal Energies=              -323.422035
 Sum of electronic and thermal Enthalpies=            -323.421091
 Sum of electronic and thermal Free Energies=         -323.456164

                     E (Thermal)             CV                S
                      KCal/Mol        Cal/Mol-Kelvin    Cal/Mol-Kelvin
 Total                   62.490             20.113             73.818
 Electronic               0.000              0.000              0.000
 Translational            0.889              2.981             39.566
 Rotational               0.889              2.981             26.762
 Vibrational             60.712             14.151              7.489
 Vibration     1          0.627              1.874              2.386
 Vibration     2          0.755              1.498              1.012
 Vibration     3          0.821              1.331              0.756
 Vibration     4          0.848              1.268              0.678
 Vibration     5          0.906              1.139              0.543
 Vibration     6          0.980              0.990              0.417

 Optimization completed.
    -- Stationary point found.
 Normal termination of Gaussian 09 at Fri Aug 27 00:18:25 2021.
