 Gaussian 09, Revision E.01,
 Gaussian 09:  EM64L-G09RevE.01 30-Nov-2015

 --------------------
 #p opt freq M06L/gen
 --------------------

 --------------------
 PY_M06L_PC2_OPT_FREQ
 --------------------
 Symbolic Z-matrix:
 Charge =  0 Multiplicity = 1

 SCF Done:  E(RM06L) =  -323.598556729     A.U. after   19 cycles
 SCF Done:  E(RM06L) =  -323.598696369     A.U. after   10 cycles
 SCF Done:  E(RM06L) =  -323.598708234     A.U. after    9 cycles
 Optimization completed.
    -- Stationary point found.
 Normal termination of Gaussian 09 at Fri Aug 27 00:06:02 2021.

 -----------------------------------------------------------------
 #P Geom=AllCheck Guess=TCheck SCRF=Check GenChk RM06L/ChkBas Freq
 -----------------------------------------------------------------

 Structure from the checkpoint file:  "PY_M06L_PC2_OPT_FREQ.chk"
 --------------------
 PY_M06L_PC2_OPT_FREQ
 --------------------
 Charge =  0 Multiplicity = 1

                         Standard orientation:
 ---------------------------------------------------------------------
 Center     Atomic      Atomic             Coordinates (Angstroms)
 Number     Number       Type             X           Y           Z
 ---------------------------------------------------------------------
      1          8           0       -0.139724    2.275319    0.000000
      2          7           0       -1.134251    0.227327   -0.000000
      3          6           0       -0.000000    1.065382    0.000000
      4          6           0        1.237465    0.325280    0.000000
      5          6           0       -1.113374   -1.127463   -0.000000
      6          6           0        1.260173   -1.032445    0.000000
      7          6           0        0.066998   -1.794449   -0.000000
      8          1           0       -2.012233    0.717131   -0.000000
      9          1           0        2.142823    0.910640    0.000000
     10          1           0       -2.074201   -1.619681   -0.000000
     11          1           0        2.210508   -1.549297    0.000000
     12          1           0        0.083079   -2.870464   -0.000000
 ---------------------------------------------------------------------

 SCF Done:  E(RM06L) =  -323.598708234     A.U. after    1 cycles

 The electronic state is 1-A'.
 Alpha  occ. eigenvalues --  -18.91448 -14.22836 -10.14080 -10.11085 -10.07252
 Alpha  occ. eigenvalues --  -10.05777 -10.05310  -1.00202  -0.92605  -0.78724
 Alpha  occ. eigenvalues --   -0.72524  -0.62042  -0.60023  -0.52650  -0.47064
 Alpha  occ. eigenvalues --   -0.45204  -0.42750  -0.40858  -0.38961  -0.35379
 Alpha  occ. eigenvalues --   -0.34266  -0.31789  -0.28697  -0.21881  -0.20196
 Alpha virt. eigenvalues --   -0.06911  -0.01456   0.01545   0.03957   0.05399
 Alpha virt. eigenvalues --    0.07776   0.08611   0.10292   0.13536   0.15768
 Alpha virt. eigenvalues --    0.17053   0.18016   0.18498   0.19791   0.21902

 Mulliken charges:
               1
     1  O   -0.610089
     2  N   -0.344598
     3  C    0.618555
     4  C   -0.092235
     5  C    0.250028
     6  C    0.147052
     7  C   -0.091872
     8  H    0.167228
     9  H   -0.012518
    10  H    0.019823
    11  H   -0.019376
    12  H   -0.031998
 Sum of Mulliken charges =   0.00000

 Dipole moment (field-independent basis, Debye):
    X=             -1.2332    Y=             -3.9837    Z=              0.0000  Tot=              4.1702
 Quadrupole moment (field-independent basis, Debye-Ang):
   XX=            -31.4415   YY=            -47.0926   ZZ=            -41.8928
   XY=              0.1554   XZ=             -0.0000   YZ=              0.0000

  Exact polarizability:  72.239   0.155  89.478   0.000   0.000  36.550
 Approx polarizability: 135.606   1.703 181.815   0.000   0.000  56.853

                      1                      2                      3
                     A"                     A"                     A'
 Frequencies --    171.2135               389.9247               451.7599
 Red. masses --      5.8502                 3.3125                 5.9973
 Frc consts  --      0.1010                 0.2967                 0.7211
 IR Inten    --      2.6247                 1.5599                 6.6557

                      4                      5                      6
                     A"                     A'                     A'
 Frequencies --    485.2844               546.1126               617.0621
 Red. masses --      2.0024                 7.7959                 6.6938
 Frc consts  --      0.2778                 1.3699                 1.5017
 IR Inten    --     34.5212                 5.0074                 0.9276

                      7                      8                      9
                     A"                     A"                     A"
 Frequencies --    706.1033               741.7698               775.4749
 Red. masses --      1.3098                 1.8302                 1.9549
 Frc consts  --      0.3848                 0.5933                 0.6927
 IR Inten    --     36.8886                 5.2268                60.0077

                     10                     11                     12
                     A'                     A"                     A"
 Frequencies --    821.0969               866.2738               946.0968
 Red. masses --      5.1022                 1.6099                 1.2950
 Frc consts  --      2.0267                 0.7118                 0.6830
 IR Inten    --     10.2244                14.6175                 0.1161

                     13                     14                     15
                     A'                     A"                     A'
 Frequencies --   1003.8249              1010.7413              1029.0371
 Red. masses --      4.7585                 1.2787                 2.8425
 Frc consts  --      2.8251                 0.7697                 1.7734
 IR Inten    --     12.6098                 0.2639                 3.9027

                     16                     17                     18
                     A'                     A'                     A'
 Frequencies --   1114.3848              1160.2510              1223.4681
 Red. masses --      1.6580                 1.2708                 1.2407
 Frc consts  --      1.2131                 1.0080                 1.0942
 IR Inten    --     16.9663                19.2246                 9.9412

                     19                     20                     21
                     A'                     A'                     A'
 Frequencies --   1238.8902              1389.7358              1456.9241
 Red. masses --      1.9844                 1.4800                 2.0533
 Frc consts  --      1.7945                 1.6842                 2.5679
 IR Inten    --     20.1432                 1.6323                 6.0417

                     22                     23                     24
                     A'                     A'                     A'
 Frequencies --   1496.0779              1595.7136              1675.6815
 Red. masses --      2.3912                 5.5168                 4.8358
 Frc consts  --      3.1533                 8.2765                 8.0001
 IR Inten    --      3.9752                54.0628                36.6884

                     25                     26                     27
                     A'                     A'                     A'
 Frequencies --   1772.9172              3186.8581              3217.8726
 Red. masses --      8.2403                 1.0882                 1.0889
 Frc consts  --     15.2605                 6.5114                 6.6430
 IR Inten    --    652.2742                12.7309                 2.6695

                     28                     29                     30
                     A'                     A'                     A'
 Frequencies --   3226.0477              3240.2587              3596.2428
 Red. masses --      1.0936                 1.0985                 1.0779
 Frc consts  --      6.7058                 6.7952                 8.2131
 IR Inten    --      4.4371                 5.5110                42.3158

 - Thermochemistry -
 -------------------
 Temperature   298.150 Kelvin.  Pressure   1.00000 Atm.
 Atom     1 has atomic number  8 and mass  15.99491

 Molecular mass:    95.03711 amu.
 Principal axes and moments of inertia in atomic units:
                           1         2         3
     Eigenvalues --   315.38144 642.70196 958.08339
           X           -0.06160   0.99810   0.00000
           Y            0.99810   0.06160   0.00000
           Z           -0.00000  -0.00000   1.00000
 This molecule is an asymmetric top.
 Rotational symmetry number  1.
 Rotational temperatures (Kelvin)      0.27463     0.13477     0.09040
 Rotational constants (GHZ):           5.72241     2.80805     1.88370
 Zero-point vibrational energy     246150.2 (Joules/Mol)
                                   58.83131 (Kcal/Mol)
 Warning -- explicit consideration of   6 degrees of freedom as
           vibrations may cause significant error
 Vibrational temperatures:    246.34   561.01   649.98   698.22   785.73
          (Kelvin)            887.81  1015.92  1067.24  1115.73  1181.37
                             1246.37  1361.22  1444.28  1454.23  1480.55
                             1603.35  1669.34  1760.30  1782.48  1999.52
                             2096.19  2152.52  2295.87  2410.93  2550.83
                             4585.17  4629.80  4641.56  4662.00  5174.18

 Zero-point correction=                           0.093754 (Hartree/Particle)
 Thermal correction to Energy=                    0.099029
 Thermal correction to Enthalpy=                  0.099973
 Thermal correction to Gibbs Free Energy=         0.064825
 Sum of electronic and zero-point Energies=           -323.504955
 Sum of electronic and thermal Energies=              -323.499680
 Sum of electronic and thermal Enthalpies=            -323.498735
 Sum of electronic and thermal Free Energies=         -323.533883

                     E (Thermal)             CV                S
                      KCal/Mol        Cal/Mol-Kelvin    Cal/Mol-Kelvin
 Total                   62.141             20.331             73.975
 Electronic               0.000              0.000              0.000
 Translational            0.889              2.981             39.566
 Rotational               0.889              2.981             26.765
 Vibrational             60.364             14.369              7.644
 Vibration     1          0.626              1.878              2.422
 Vibration     2          0.758              1.492              1.000
 Vibration     3          0.810              1.357              0.790
 Vibration     4          0.841              1.283              0.696
 Vibration     5          0.901              1.148              0.552
 Vibration     6          0.977              0.996              0.421

 Normal termination of Gaussian 09 at Fri Aug 27 00:06:45 2021.
