 Gaussian 09, Revision E.01,
 Gaussian 09:  EM64L-G09RevE.01 30-Nov-2015

 ----------------------
 #p opt freq PBEPBE/gen
 ----------------------

 ----------------------
 PY_PBEPBE_PC2_OPT_FREQ
 ----------------------
 Symbolic Z-matrix:
 Charge =  0 Multiplicity = 1

 SCF Done:  E(RPBE-PBE) =  -323.271924726     A.U. after   17 cycles
 SCF Done:  E(RPBE-PBE) =  -323.273563158     A.U. after   12 cycles
 SCF Done:  E(RPBE-PBE) =  -323.273592187     A.U. after    9 cycles
 SCF Done:  E(RPBE-PBE) =  -323.273598548     A.U. after    9 cycles
 Optimization completed.
    -- Stationary point found.
 Normal termination of Gaussian 09 at Thu Aug 26 23:59:35 2021.

 -------------------------------------------------------------------
 #P Geom=AllCheck Guess=TCheck SCRF=Check GenChk RPBEPBE/ChkBas Freq
 -------------------------------------------------------------------

 Structure from the checkpoint file:  "PY_PBEPBE_PC2_OPT_FREQ.chk"
 ----------------------
 PY_PBEPBE_PC2_OPT_FREQ
 ----------------------
 Charge =  0 Multiplicity = 1

                         Standard orientation:
 ---------------------------------------------------------------------
 Center     Atomic      Atomic             Coordinates (Angstroms)
 Number     Number       Type             X           Y           Z
 ---------------------------------------------------------------------
      1          8           0       -0.142350    2.294150    0.000000
      2          7           0       -1.141630    0.227160    0.000000
      3          6           0       -0.000000    1.070576    0.000000
      4          6           0        1.245195    0.328273    0.000000
      5          6           0       -1.121581   -1.134534    0.000000
      6          6           0        1.269391   -1.041630    0.000000
      7          6           0        0.069724   -1.806758    0.000000
      8          1           0       -2.028055    0.727302    0.000000
      9          1           0        2.158311    0.921099    0.000000
     10          1           0       -2.090751   -1.631918    0.000000
     11          1           0        2.229211   -1.561862    0.000000
     12          1           0        0.085117   -2.893511    0.000000
 ---------------------------------------------------------------------

 SCF Done:  E(RPBE-PBE) =  -323.273598548     A.U. after    1 cycles

 The electronic state is 1-A'.
 Alpha  occ. eigenvalues --  -18.70773 -14.04891  -9.98066  -9.95261  -9.91553
 Alpha  occ. eigenvalues --   -9.90267  -9.89866  -0.94771  -0.87981  -0.75094
 Alpha  occ. eigenvalues --   -0.69329  -0.59789  -0.58214  -0.51422  -0.45972
 Alpha  occ. eigenvalues --   -0.44104  -0.41765  -0.39945  -0.37909  -0.34678
 Alpha  occ. eigenvalues --   -0.33644  -0.31255  -0.28426  -0.21379  -0.20301
 Alpha virt. eigenvalues --   -0.08391  -0.03371  -0.01544   0.01245   0.02659
 Alpha virt. eigenvalues --    0.05192   0.06250   0.07562   0.10334   0.12293
 Alpha virt. eigenvalues --    0.12895   0.13419   0.14875   0.16659   0.16911

 Mulliken charges:
               1
     1  O   -0.448219
     2  N   -0.239353
     3  C    0.370102
     4  C   -0.125618
     5  C    0.161083
     6  C    0.017089
     7  C   -0.134862
     8  H    0.159784
     9  H    0.058573
    10  H    0.066546
    11  H    0.061409
    12  H    0.053467
 Sum of Mulliken charges =   0.00000

 Dipole moment (field-independent basis, Debye):
    X=             -1.2116    Y=             -4.0793    Z=             -0.0000  Tot=              4.2554
 Quadrupole moment (field-independent basis, Debye-Ang):
   XX=            -31.7342   YY=            -47.6409   ZZ=            -43.1944
   XY=              0.2492   XZ=              0.0000   YZ=             -0.0000

  Exact polarizability:  76.398   0.096  93.201  -0.000  -0.000  38.393
 Approx polarizability: 153.050   1.998 206.615   0.000  -0.000  64.336

                      1                      2                      3
                     A"                     A"                     A'
 Frequencies --    160.7980               377.5042               440.8048
 Red. masses --      5.7774                 3.3268                 6.0673
 Frc consts  --      0.0880                 0.2793                 0.6946
 IR Inten    --      2.8631                 1.1017                 5.8547

                      4                      5                      6
                     A"                     A'                     A'
 Frequencies --    467.9947               530.2693               597.8273
 Red. masses --      2.0454                 7.8732                 6.7448
 Frc consts  --      0.2639                 1.3044                 1.4203
 IR Inten    --     37.2232                 5.4003                 1.0457

                      7                      8                      9
                     A"                     A"                     A"
 Frequencies --    685.3013               711.9857               744.4800
 Red. masses --      1.4061                 1.6768                 1.8219
 Frc consts  --      0.3891                 0.5008                 0.5950
 IR Inten    --     39.3226                 3.0213                63.9610

                     10                     11                     12
                     A'                     A"                     A"
 Frequencies --    796.3108               826.6633               904.2092
 Red. masses --      5.1313                 1.6681                 1.2938
 Frc consts  --      1.9171                 0.6716                 0.6232
 IR Inten    --      7.5161                14.6691                 0.0319

                     13                     14                     15
                     A"                     A'                     A'
 Frequencies --    965.4902               971.4318              1002.5323
 Red. masses --      1.2869                 4.9234                 2.6921
 Frc consts  --      0.7068                 2.7374                 1.5942
 IR Inten    --      0.0473                12.3428                 3.4612

                     16                     17                     18
                     A'                     A'                     A'
 Frequencies --   1079.3119              1125.9933              1184.9153
 Red. masses --      1.6467                 1.2465                 1.3099
 Frc consts  --      1.1302                 0.9311                 1.0836
 IR Inten    --     17.3647                15.7175                 5.6953

                     19                     20                     21
                     A'                     A'                     A'
 Frequencies --   1206.2624              1340.7632              1407.9539
 Red. masses --      1.8406                 1.4876                 2.0502
 Frc consts  --      1.5779                 1.5755                 2.3945
 IR Inten    --     21.1568                 1.5143                 3.4804

                     22                     23                     24
                     A'                     A'                     A'
 Frequencies --   1447.9545              1538.0082              1609.8280
 Red. masses --      2.5202                 5.6909                 4.7953
 Frc consts  --      3.1131                 7.9314                 7.3219
 IR Inten    --      1.2949                41.9459                41.0130

                     25                     26                     27
                     A'                     A'                     A'
 Frequencies --   1698.1788              3100.4783              3129.2971
 Red. masses --      8.0595                 1.0886                 1.0904
 Frc consts  --     13.6939                 6.1655                 6.2913
 IR Inten    --    556.1865                10.7178                 2.5066

                     28                     29                     30
                     A'                     A'                     A'
 Frequencies --   3144.3606              3160.7923              3502.4027
 Red. masses --      1.0928                 1.0959                 1.0774
 Frc consts  --      6.3657                 6.4507                 7.7870
 IR Inten    --      1.6888                 2.5737                49.0696

 - Thermochemistry -
 -------------------
 Temperature   298.150 Kelvin.  Pressure   1.00000 Atm.
 Atom     1 has atomic number  8 and mass  15.99491

 Molecular mass:    95.03711 amu.
 Principal axes and moments of inertia in atomic units:
                           1         2         3
     Eigenvalues --   319.83258 652.52109 972.35366
           X           -0.06285   0.99802   0.00000
           Y            0.99802   0.06285   0.00000
           Z           -0.00000  -0.00000   1.00000
 This molecule is an asymmetric top.
 Rotational symmetry number  1.
 Rotational temperatures (Kelvin)      0.27081     0.13274     0.08908
 Rotational constants (GHZ):           5.64277     2.76580     1.85605
 Zero-point vibrational energy     238416.4 (Joules/Mol)
                                   56.98288 (Kcal/Mol)
 Warning -- explicit consideration of   6 degrees of freedom as
           vibrations may cause significant error
 Vibrational temperatures:    231.35   543.14   634.22   673.34   762.94
          (Kelvin)            860.14   985.99  1024.39  1071.14  1145.71
                             1189.38  1300.95  1389.12  1397.67  1442.42
                             1552.89  1620.05  1704.83  1735.54  1929.06
                             2025.73  2083.28  2212.85  2316.18  2443.30
                             4460.89  4502.35  4524.03  4547.67  5039.17

 Zero-point correction=                           0.090808 (Hartree/Particle)
 Thermal correction to Energy=                    0.096244
 Thermal correction to Enthalpy=                  0.097188
 Thermal correction to Gibbs Free Energy=         0.061757
 Sum of electronic and zero-point Energies=           -323.182791
 Sum of electronic and thermal Energies=              -323.177355
 Sum of electronic and thermal Enthalpies=            -323.176411
 Sum of electronic and thermal Free Energies=         -323.211842

                     E (Thermal)             CV                S
                      KCal/Mol        Cal/Mol-Kelvin    Cal/Mol-Kelvin
 Total                   60.394             21.110             74.571
 Electronic               0.000              0.000              0.000
 Translational            0.889              2.981             39.566
 Rotational               0.889              2.981             26.809
 Vibrational             58.616             15.148              8.196
 Vibration     1          0.622              1.890              2.540
 Vibration     2          0.748              1.518              1.049
 Vibration     3          0.801              1.381              0.824
 Vibration     4          0.825              1.321              0.743
 Vibration     5          0.885              1.183              0.587
 Vibration     6          0.956              1.036              0.453

 Optimization completed.
    -- Stationary point found.
 Normal termination of Gaussian 09 at Fri Aug 27 00:00:12 2021.
