 Gaussian 09, Revision E.01,
 Gaussian 09:  EM64L-G09RevE.01 30-Nov-2015

 ----------------------------------------------------------
 #p opt freq TPSSh/gen SCF(novaracc,noincfock) int=acc2e=12
 ----------------------------------------------------------

 ---------------------
 PY_TPSSh_PC2_OPT_FREQ
 ---------------------
 Symbolic Z-matrix:
 Charge =  0 Multiplicity = 1

 SCF Done:  E(RTPSSh) =  -323.663464694     A.U. after   13 cycles
 SCF Done:  E(RTPSSh) =  -323.663940299     A.U. after    9 cycles
 SCF Done:  E(RTPSSh) =  -323.663953712     A.U. after    8 cycles
 SCF Done:  E(RTPSSh) =  -323.663955759     A.U. after    8 cycles
 Optimization completed.
    -- Stationary point found.
 Normal termination of Gaussian 09 at Thu Sep  2 22:22:46 2021.

 ------------------------------------------------------------------
 #P Geom=AllCheck Guess=TCheck SCRF=Check GenChk RTPSSh/ChkBas Freq
 ------------------------------------------------------------------

 Structure from the checkpoint file:  "PY_TPSSh_PC2_OPT_FREQ.chk"
 ---------------------
 PY_TPSSh_PC2_OPT_FREQ
 ---------------------
 Charge =  0 Multiplicity = 1

                         Standard orientation:
 ---------------------------------------------------------------------
 Center     Atomic      Atomic             Coordinates (Angstroms)
 Number     Number       Type             X           Y           Z
 ---------------------------------------------------------------------
      1          8           0       -0.139620    2.282646    0.000000
      2          7           0       -1.135962    0.229648    0.000000
      3          6           0       -0.000000    1.065460    0.000000
      4          6           0        1.242072    0.325702   -0.000000
      5          6           0       -1.117531   -1.129496   -0.000000
      6          6           0        1.263742   -1.036822   -0.000000
      7          6           0        0.065265   -1.800269   -0.000000
      8          1           0       -2.017402    0.724507    0.000000
      9          1           0        2.149879    0.912377   -0.000000
     10          1           0       -2.081778   -1.618852    0.000000
     11          1           0        2.216031   -1.554695   -0.000000
     12          1           0        0.080684   -2.879493   -0.000000
 ---------------------------------------------------------------------

 SCF Done:  E(RTPSSh) =  -323.663955759     A.U. after    1 cycles

 The electronic state is 1-A'.
 Alpha  occ. eigenvalues --  -19.00750 -14.31130 -10.21127 -10.18186 -10.14383
 Alpha  occ. eigenvalues --  -10.12876 -10.12491  -1.01234  -0.93961  -0.80597
 Alpha  occ. eigenvalues --   -0.74471  -0.64143  -0.62287  -0.55030  -0.49269
 Alpha  occ. eigenvalues --   -0.47566  -0.45076  -0.42792  -0.41116  -0.37550
 Alpha  occ. eigenvalues --   -0.36513  -0.33495  -0.30289  -0.23937  -0.21666
 Alpha virt. eigenvalues --   -0.06428  -0.01105   0.00326   0.02926   0.04337
 Alpha virt. eigenvalues --    0.06903   0.07901   0.10719   0.12602   0.14535
 Alpha virt. eigenvalues --    0.15062   0.15656   0.17323   0.19031   0.19079

 Mulliken charges:
               1
     1  O   -0.490276
     2  N   -0.299861
     3  C    0.447135
     4  C   -0.133758
     5  C    0.217800
     6  C    0.058388
     7  C   -0.152805
     8  H    0.162797
     9  H    0.042255
    10  H    0.064963
    11  H    0.048560
    12  H    0.034801
 Sum of Mulliken charges =  -0.00000

 Dipole moment (field-independent basis, Debye):
    X=             -1.1997    Y=             -4.1852    Z=             -0.0000  Tot=              4.3537
 Quadrupole moment (field-independent basis, Debye-Ang):
   XX=            -31.3916   YY=            -47.5836   ZZ=            -42.8479
   XY=              0.2306   XZ=              0.0000   YZ=             -0.0000

  Exact polarizability:  73.744   0.031  90.485  -0.000   0.000  37.576
 Approx polarizability: 126.893   0.314 169.253  -0.000   0.000  58.332

                      1                      2                      3
                     A"                     A"                     A'
 Frequencies --    169.5906               386.2240               446.8749
 Red. masses --      5.7820                 3.3511                 6.0900
 Frc consts  --      0.0980                 0.2945                 0.7165
 IR Inten    --      2.9937                 1.2400                 6.3563

                      4                      5                      6
                     A"                     A'                     A'
 Frequencies --    484.4356               539.2140               609.1964
 Red. masses --      2.0966                 7.8477                 6.7379
 Frc consts  --      0.2899                 1.3444                 1.4733
 IR Inten    --     36.3003                 6.2086                 0.8047

                      7                      8                      9
                     A"                     A"                     A"
 Frequencies --    703.6275               736.3540               772.6809
 Red. masses --      1.3817                 1.8519                 1.7124
 Frc consts  --      0.4030                 0.5916                 0.6024
 IR Inten    --     39.9773                 0.6826                73.6500

                     10                     11                     12
                     A'                     A"                     A"
 Frequencies --    814.6785               858.3028               946.9517
 Red. masses --      5.2495                 1.6212                 1.2874
 Frc consts  --      2.0528                 0.7037                 0.6802
 IR Inten    --      8.4089                14.2594                 0.0424

                     13                     14                     15
                     A'                     A"                     A'
 Frequencies --    997.9285              1006.8984              1019.2314
 Red. masses --      4.9870                 1.2830                 2.7897
 Frc consts  --      2.9261                 0.7664                 1.7075
 IR Inten    --     13.6726                 0.0632                 3.5586

                     16                     17                     18
                     A'                     A'                     A'
 Frequencies --   1106.9571              1160.4319              1221.6450
 Red. masses --      1.7050                 1.2858                 1.3556
 Frc consts  --      1.2309                 1.0202                 1.1920
 IR Inten    --     16.6428                19.5021                 6.3919

                     19                     20                     21
                     A'                     A'                     A'
 Frequencies --   1236.5832              1387.6542              1450.6729
 Red. masses --      1.8201                 1.4910                 2.0738
 Frc consts  --      1.6398                 1.6915                 2.5713
 IR Inten    --     22.2782                 3.2823                 6.9947

                     22                     23                     24
                     A'                     A'                     A'
 Frequencies --   1489.8436              1575.6214              1654.2477
 Red. masses --      2.2671                 5.0690                 4.3687
 Frc consts  --      2.9649                 7.4144                 7.0437
 IR Inten    --      1.5061                46.7098                49.4106

                     25                     26                     27
                     A'                     A'                     A'
 Frequencies --   1736.7164              3165.2263              3197.3025
 Red. masses --      7.6072                 1.0888                 1.0902
 Frc consts  --     13.5185                 6.4273                 6.5664
 IR Inten    --    612.5517                11.9366                 2.5900

                     28                     29                     30
                     A'                     A'                     A'
 Frequencies --   3210.5556              3224.8966              3578.3560
 Red. masses --      1.0932                 1.0968                 1.0777
 Frc consts  --      6.6389                 6.7207                 8.1308
 IR Inten    --      2.9420                 4.1535                53.6753

 - Thermochemistry -
 -------------------
 Temperature   298.150 Kelvin.  Pressure   1.00000 Atm.
 Atom     1 has atomic number  8 and mass  15.99491

 Molecular mass:    95.03711 amu.
 Principal axes and moments of inertia in atomic units:
                           1         2         3
     Eigenvalues --   317.21189 646.45772 963.66961
           X           -0.06164   0.99810   0.00000
           Y            0.99810   0.06164   0.00000
           Z            0.00000   0.00000   1.00000
 This molecule is an asymmetric top.
 Rotational symmetry number  1.
 Rotational temperatures (Kelvin)      0.27305     0.13398     0.08988
 Rotational constants (GHZ):           5.68939     2.79174     1.87278
 Zero-point vibrational energy     244569.9 (Joules/Mol)
                                   58.45362 (Kcal/Mol)
 Warning -- explicit consideration of   6 degrees of freedom as
           vibrations may cause significant error
 Vibrational temperatures:    244.00   555.69   642.95   696.99   775.81
          (Kelvin)            876.50  1012.36  1059.45  1111.71  1172.14
                             1234.90  1362.45  1435.79  1448.70  1466.44
                             1592.66  1669.60  1757.67  1779.17  1996.52
                             2087.19  2143.55  2266.96  2380.09  2498.74
                             4554.05  4600.20  4619.27  4639.90  5148.45

 Zero-point correction=                           0.093152 (Hartree/Particle)
 Thermal correction to Energy=                    0.098459
 Thermal correction to Enthalpy=                  0.099403
 Thermal correction to Gibbs Free Energy=         0.064195
 Sum of electronic and zero-point Energies=           -323.570804
 Sum of electronic and thermal Energies=              -323.565497
 Sum of electronic and thermal Enthalpies=            -323.564553
 Sum of electronic and thermal Free Energies=         -323.599761

                     E (Thermal)             CV                S
                      KCal/Mol        Cal/Mol-Kelvin    Cal/Mol-Kelvin
 Total                   61.784             20.470             74.102
 Electronic               0.000              0.000              0.000
 Translational            0.889              2.981             39.566
 Rotational               0.889              2.981             26.783
 Vibrational             60.006             14.509              7.753
 Vibration     1          0.625              1.880              2.440
 Vibration     2          0.755              1.500              1.015
 Vibration     3          0.806              1.368              0.805
 Vibration     4          0.841              1.285              0.698
 Vibration     5          0.894              1.163              0.567
 Vibration     6          0.968              1.012              0.434

 Optimization completed.
    -- Stationary point found.
 Normal termination of Gaussian 09 at Thu Sep  2 22:27:33 2021.
