 Gaussian 09, Revision E.01,
 Gaussian 09:  EM64L-G09RevE.01 30-Nov-2015

 --------------------
 #p opt freq wB97/gen
 --------------------

 --------------------
 PY_wB97_PC2_OPT_FREQ
 --------------------
 Symbolic Z-matrix:
 Charge =  0 Multiplicity = 1

 SCF Done:  E(RwB97) =  -323.584711562     A.U. after   16 cycles
 SCF Done:  E(RwB97) =  -323.585010829     A.U. after   11 cycles
 SCF Done:  E(RwB97) =  -323.585046028     A.U. after   10 cycles
 SCF Done:  E(RwB97) =  -323.585050805     A.U. after    9 cycles
 Optimization completed.
    -- Stationary point found.
 Normal termination of Gaussian 09 at Fri Aug 27 00:14:52 2021.

 -----------------------------------------------------------------
 #P Geom=AllCheck Guess=TCheck SCRF=Check GenChk RwB97/ChkBas Freq
 -----------------------------------------------------------------

 Structure from the checkpoint file:  "PY_wB97_PC2_OPT_FREQ.chk"
 --------------------
 PY_wB97_PC2_OPT_FREQ
 --------------------
 Charge =  0 Multiplicity = 1

                         Standard orientation:
 ---------------------------------------------------------------------
 Center     Atomic      Atomic             Coordinates (Angstroms)
 Number     Number       Type             X           Y           Z
 ---------------------------------------------------------------------
      1          8           0       -0.116624    2.273247    0.000000
      2          7           0       -1.134102    0.246337    0.000000
      3          6           0       -0.000000    1.059291    0.000000
      4          6           0        1.248262    0.311092    0.000000
      5          6           0       -1.122222   -1.117527    0.000000
      6          6           0        1.257764   -1.040279    0.000000
      7          6           0        0.042841   -1.797713    0.000000
      8          1           0       -2.008355    0.748093    0.000000
      9          1           0        2.158139    0.896631    0.000000
     10          1           0       -2.092445   -1.598630    0.000000
     11          1           0        2.206055   -1.567633    0.000000
     12          1           0        0.048445   -2.877980    0.000000
 ---------------------------------------------------------------------

 SCF Done:  E(RwB97) =  -323.585050805     A.U. after    1 cycles

 The electronic state is 1-A'.
 Alpha  occ. eigenvalues --  -18.95135 -14.29276 -10.23953 -10.20284 -10.16684
 Alpha  occ. eigenvalues --  -10.14550 -10.14316  -1.18217  -1.10483  -0.97614
 Alpha  occ. eigenvalues --   -0.91072  -0.79693  -0.77892  -0.69649  -0.63762
 Alpha  occ. eigenvalues --   -0.61782  -0.58904  -0.58072  -0.55144  -0.51078
 Alpha  occ. eigenvalues --   -0.49416  -0.47241  -0.42653  -0.37355  -0.32546
 Alpha virt. eigenvalues --    0.03610   0.08914   0.09261   0.11026   0.12436
 Alpha virt. eigenvalues --    0.14967   0.15521   0.21557   0.22305   0.23405
 Alpha virt. eigenvalues --    0.24242   0.24580   0.26562   0.28066   0.28178

 Mulliken charges:
               1
     1  O   -0.517667
     2  N   -0.314212
     3  C    0.468292
     4  C   -0.115128
     5  C    0.207064
     6  C    0.047930
     7  C   -0.131584
     8  H    0.167508
     9  H    0.049891
    10  H    0.047518
    11  H    0.049694
    12  H    0.040694
 Sum of Mulliken charges =  -0.00000

 Dipole moment (field-independent basis, Debye):
    X=             -1.1989    Y=             -4.2559    Z=             -0.0000  Tot=              4.4215
 Quadrupole moment (field-independent basis, Debye-Ang):
   XX=            -31.3917   YY=            -48.0286   ZZ=            -43.1814
   XY=              0.0157   XZ=             -0.0000   YZ=             -0.0000

  Exact polarizability:  70.640  -0.260  87.977   0.000   0.000  37.690
 Approx polarizability:  72.196  -1.467  90.640  -0.000   0.000  42.610

                      1                      2                      3
                     A"                     A"                     A'
 Frequencies --    171.0049               387.4663               462.8004
 Red. masses --      5.7401                 3.2513                 6.1146
 Frc consts  --      0.0989                 0.2876                 0.7716
 IR Inten    --      2.9156                 1.5138                 7.1004

                      4                      5                      6
                     A"                     A'                     A'
 Frequencies --    494.6546               552.0137               620.9065
 Red. masses --      2.0239                 7.8646                 6.7174
 Frc consts  --      0.2918                 1.4120                 1.5258
 IR Inten    --     42.0980                 7.7762                 0.2005

                      7                      8                      9
                     A"                     A"                     A"
 Frequencies --    698.2815               748.1833               789.1437
 Red. masses --      1.2796                 1.5814                 1.9622
 Frc consts  --      0.3676                 0.5216                 0.7199
 IR Inten    --     45.2212                10.7698                62.6138

                     10                     11                     12
                     A'                     A"                     A"
 Frequencies --    839.3105               874.7875               983.6603
 Red. masses --      5.2892                 1.8404                 1.3203
 Frc consts  --      2.1953                 0.8298                 0.7527
 IR Inten    --     10.4141                24.6090                 0.0113

                     13                     14                     15
                     A'                     A'                     A"
 Frequencies --   1002.7727              1025.0934              1031.1728
 Red. masses --      5.2322                 2.4135                 1.3012
 Frc consts  --      3.0999                 1.4943                 0.8152
 IR Inten    --     14.5848                 5.6196                 0.1682

                     16                     17                     18
                     A'                     A'                     A'
 Frequencies --   1122.4510              1172.0329              1230.5787
 Red. masses --      1.5698                 1.1103                 1.1537
 Frc consts  --      1.1653                 0.8986                 1.0293
 IR Inten    --     18.7727                16.3925                19.6685

                     19                     20                     21
                     A'                     A'                     A'
 Frequencies --   1277.6677              1399.1885              1465.5115
 Red. masses --      2.8695                 1.5819                 1.9834
 Frc consts  --      2.7599                 1.8247                 2.5098
 IR Inten    --     17.6116                 2.2185                 7.1943

                     22                     23                     24
                     A'                     A'                     A'
 Frequencies --   1511.1969              1633.3346              1718.6892
 Red. masses --      2.5659                 5.6524                 5.3193
 Frc consts  --      3.4525                 8.8845                 9.2576
 IR Inten    --      3.8354                79.1978                62.1080

                     25                     26                     27
                     A'                     A'                     A'
 Frequencies --   1796.0586              3223.0934              3252.7416
 Red. masses --      8.2813                 1.0899                 1.0909
 Frc consts  --     15.7394                 6.6707                 6.8005
 IR Inten    --    748.6349                 7.7177                 0.6807

                     28                     29                     30
                     A'                     A'                     A'
 Frequencies --   3256.9874              3276.7493              3662.3250
 Red. masses --      1.0963                 1.0996                 1.0781
 Frc consts  --      6.8518                 6.9560                 8.5198
 IR Inten    --      1.0008                 2.1960                71.9852

 - Thermochemistry -
 -------------------
 Temperature   298.150 Kelvin.  Pressure   1.00000 Atm.
 Atom     1 has atomic number  8 and mass  15.99491

 Molecular mass:    95.03711 amu.
 Principal axes and moments of inertia in atomic units:
                           1         2         3
     Eigenvalues --   317.32470 641.80249 959.12719
           X           -0.05371   0.99856   0.00000
           Y            0.99856   0.05371   0.00000
           Z            0.00000   0.00000   1.00000
 This molecule is an asymmetric top.
 Rotational symmetry number  1.
 Rotational temperatures (Kelvin)      0.27295     0.13495     0.09030
 Rotational constants (GHZ):           5.68736     2.81199     1.88165
 Zero-point vibrational energy     249300.9 (Joules/Mol)
                                   59.58435 (Kcal/Mol)
 Warning -- explicit consideration of   5 degrees of freedom as
           vibrations may cause significant error
 Vibrational temperatures:    246.04   557.48   665.87   711.70   794.22
          (Kelvin)            893.34  1004.67  1076.47  1135.40  1207.58
                             1258.62  1415.27  1442.76  1474.88  1483.63
                             1614.95  1686.29  1770.53  1838.28  2013.12
                             2108.54  2174.27  2350.00  2472.81  2584.12
                             4637.31  4679.96  4686.07  4714.51  5269.26

 Zero-point correction=                           0.094954 (Hartree/Particle)
 Thermal correction to Energy=                    0.100185
 Thermal correction to Enthalpy=                  0.101129
 Thermal correction to Gibbs Free Energy=         0.066039
 Sum of electronic and zero-point Energies=           -323.490097
 Sum of electronic and thermal Energies=              -323.484866
 Sum of electronic and thermal Enthalpies=            -323.483921
 Sum of electronic and thermal Free Energies=         -323.519011

                     E (Thermal)             CV                S
                      KCal/Mol        Cal/Mol-Kelvin    Cal/Mol-Kelvin
 Total                   62.867             20.083             73.853
 Electronic               0.000              0.000              0.000
 Translational            0.889              2.981             39.566
 Rotational               0.889              2.981             26.771
 Vibrational             61.090             14.122              7.516
 Vibration     1          0.626              1.878              2.424
 Vibration     2          0.756              1.497              1.010
 Vibration     3          0.820              1.333              0.758
 Vibration     4          0.850              1.262              0.672
 Vibration     5          0.907              1.135              0.540

 Optimization completed.
    -- Stationary point found.
 Normal termination of Gaussian 09 at Fri Aug 27 00:15:43 2021.
