 Gaussian 09, Revision E.01,
 Gaussian 09:  EM64L-G09RevE.01 30-Nov-2015

 -----------------------------------------------
 #p opt=(calcfc,qst3,MaxCycle=200) freq BP86/gen
 -----------------------------------------------

 --------------------
 HY_BP86_PC2_OPT_FREQ
 --------------------
 Symbolic Z-matrix:
 Charge =  0 Multiplicity = 1

 --------------------
 PY_BP86_PC2_OPT_FREQ
 --------------------
 Symbolic Z-matrix:
 Charge =  0 Multiplicity = 1

 ------------
 TST_GAS_BP86
 ------------
 Symbolic Z-matrix:
 Charge =  0 Multiplicity = 1

 SCF Done:  E(RB-P86) =  -323.595010456     A.U. after   16 cycles
 SCF Done:  E(RB-P86) =  -323.601341275     A.U. after   14 cycles
 SCF Done:  E(RB-P86) =  -323.610719109     A.U. after   13 cycles
 SCF Done:  E(RB-P86) =  -323.611156541     A.U. after   14 cycles
 SCF Done:  E(RB-P86) =  -323.615301533     A.U. after   13 cycles
 SCF Done:  E(RB-P86) =  -323.610984319     A.U. after   13 cycles
 SCF Done:  E(RB-P86) =  -323.610352371     A.U. after   13 cycles
 SCF Done:  E(RB-P86) =  -323.610276371     A.U. after   13 cycles
 SCF Done:  E(RB-P86) =  -323.609497900     A.U. after   12 cycles
 SCF Done:  E(RB-P86) =  -323.610218437     A.U. after   13 cycles
 SCF Done:  E(RB-P86) =  -323.610209833     A.U. after   13 cycles
 SCF Done:  E(RB-P86) =  -323.610313466     A.U. after   12 cycles
 SCF Done:  E(RB-P86) =  -323.610315129     A.U. after    9 cycles
 SCF Done:  E(RB-P86) =  -323.610317248     A.U. after    8 cycles
 Optimization completed.
    -- Stationary point found.
 Normal termination of Gaussian 09 at Sat Aug 28 00:55:25 2021.

 -----------------------------------------------------------------
 #P Geom=AllCheck Guess=TCheck SCRF=Check GenChk RBP86/ChkBas Freq
 -----------------------------------------------------------------

 Structure from the checkpoint file:  "TST_GAS_BP86.chk"
 --------------------
 HY_BP86_PC2_OPT_FREQ
 --------------------
 Charge =  0 Multiplicity = 1

                         Standard orientation:
 ---------------------------------------------------------------------
 Center     Atomic      Atomic             Coordinates (Angstroms)
 Number     Number       Type             X           Y           Z
 ---------------------------------------------------------------------
      1          8           0       -2.246555    0.036060    0.000033
      2          7           0       -0.422223   -1.054749   -0.000040
      3          6           0       -0.961140    0.205494   -0.000030
      4          6           0       -0.114874    1.336574   -0.000018
      5          6           0        0.899048   -1.290944   -0.000009
      6          6           0        1.253640    1.093096    0.000006
      7          6           0        1.780927   -0.215605    0.000020
      8          1           0       -1.710727   -1.239641    0.000075
      9          1           0       -0.529524    2.342333   -0.000002
     10          1           0        1.225386   -2.331069    0.000076
     11          1           0        1.942225    1.940029    0.000038
     12          1           0        2.855035   -0.388577    0.000015
 ---------------------------------------------------------------------

 SCF Done:  E(RB-P86) =  -323.610317248     A.U. after    1 cycles

 The electronic state is 1-A.
 Alpha  occ. eigenvalues --  -18.75966 -14.04070  -9.99896  -9.96557  -9.93794
 Alpha  occ. eigenvalues --   -9.92292  -9.92075  -0.97612  -0.86382  -0.74972
 Alpha  occ. eigenvalues --   -0.69682  -0.61046  -0.57143  -0.49983  -0.46559
 Alpha  occ. eigenvalues --   -0.43525  -0.40695  -0.40608  -0.38556  -0.35687
 Alpha  occ. eigenvalues --   -0.31484  -0.31408  -0.28397  -0.26065  -0.21045
 Alpha virt. eigenvalues --   -0.08800  -0.04578  -0.00082   0.01961   0.03275
 Alpha virt. eigenvalues --    0.04776   0.06415   0.07192   0.09811   0.12019
 Alpha virt. eigenvalues --    0.13617   0.13654   0.14642   0.15309   0.17513

 Mulliken charges:
               1
     1  O   -0.480771
     2  N   -0.401454
     3  C    0.482743
     4  C   -0.146520
     5  C    0.144134
     6  C    0.036060
     7  C   -0.159820
     8  H    0.250021
     9  H    0.066018
    10  H    0.076433
    11  H    0.070329
    12  H    0.062828
 Sum of Mulliken charges =  -0.00000

 Dipole moment (field-independent basis, Debye):
    X=              3.3414    Y=             -0.3516    Z=              0.0001  Tot=              3.3598
 Quadrupole moment (field-independent basis, Debye-Ang):
   XX=            -44.5557   YY=            -34.7354   ZZ=            -43.1917
   XY=              0.7979   XZ=              0.0001   YZ=             -0.0003

  Exact polarizability:  93.100  -1.426  77.653   0.000  -0.000  38.572
 Approx polarizability: 206.819  -8.407 162.926   0.000   0.001  64.110

 ******    1 imaginary frequencies (negative Signs) ******

                      1                      2                      3
                      A                      A                      A
 Frequencies --  -1685.9006               174.3825               397.9075
 Red. masses --      1.0724                 6.8129                 3.3767
 Frc consts  --      1.7959                 0.1221                 0.3150
 IR Inten    --    499.1095                 0.0071                 2.1869

                      4                      5                      6
                      A                      A                      A
 Frequencies --    470.2153               480.9099               588.8638
 Red. masses --      2.4673                 7.1220                 7.1553
 Frc consts  --      0.3214                 0.9705                 1.4619
 IR Inten    --     16.9545                 2.7111                 2.3969

                      7                      8                      9
                      A                      A                      A
 Frequencies --    651.1886               710.4996               740.1328
 Red. masses --      7.0087                 2.9707                 1.4512
 Frc consts  --      1.7511                 0.8835                 0.4684
 IR Inten    --      0.2182                 6.9706                53.8487

                     10                     11                     12
                      A                      A                      A
 Frequencies --    822.9200               868.0901               920.4734
 Red. masses --      1.3674                 5.6829                 1.3536
 Frc consts  --      0.5456                 2.5232                 0.6757
 IR Inten    --      2.5514                 6.0631                 1.5015

                     13                     14                     15
                      A                      A                      A
 Frequencies --    957.1257               986.4138              1011.4751
 Red. masses --      1.2839                 5.7756                 2.1227
 Frc consts  --      0.6930                 3.3111                 1.2795
 IR Inten    --      0.0174                10.9191                 4.9746

                     16                     17                     18
                      A                      A                      A
 Frequencies --   1078.4551              1104.3559              1141.1302
 Red. masses --      1.1748                 1.4527                 1.0971
 Frc consts  --      0.8050                 1.0439                 0.8417
 IR Inten    --     49.0265                 4.9791                10.4407

                     19                     20                     21
                      A                      A                      A
 Frequencies --   1236.8366              1297.2923              1363.0462
 Red. masses --      2.2698                 2.6054                 2.4684
 Frc consts  --      2.0458                 2.5834                 2.7020
 IR Inten    --      0.1866                32.1645                 8.4551

                     22                     23                     24
                      A                      A                      A
 Frequencies --   1435.3054              1487.1622              1536.5280
 Red. masses --      2.4721                 4.3776                 5.1685
 Frc consts  --      3.0006                 5.7043                 7.1895
 IR Inten    --      3.0289               240.0322                27.3406

                     25                     26                     27
                      A                      A                      A
 Frequencies --   1605.7960              2034.7951              3100.1462
 Red. masses --      6.2649                 1.0812                 1.0884
 Frc consts  --      9.5179                 2.6374                 6.1630
 IR Inten    --    374.8739                35.6783                 7.4330

                     28                     29                     30
                      A                      A                      A
 Frequencies --   3117.9723              3142.1065              3145.1835
 Red. masses --      1.0897                 1.0933                 1.0952
 Frc consts  --      6.2419                 6.3595                 6.3832
 IR Inten    --      3.9806                 5.9985                 0.5598

 - Thermochemistry -
 -------------------
 Temperature   298.150 Kelvin.  Pressure   1.00000 Atm.
 Atom     1 has atomic number  8 and mass  15.99491

 Molecular mass:    95.03711 amu.
 Principal axes and moments of inertia in atomic units:
                           1         2         3
     Eigenvalues --   317.57889 634.59966 952.17855
           X            0.99997   0.00775   0.00000
           Y           -0.00775   0.99997  -0.00000
           Z           -0.00000   0.00000   1.00000
 This molecule is an asymmetric top.
 Rotational symmetry number  1.
 Rotational temperatures (Kelvin)      0.27273     0.13649     0.09096
 Rotational constants (GHZ):           5.68281     2.84391     1.89538
    1 imaginary frequencies ignored.
 Zero-point vibrational energy     224938.1 (Joules/Mol)
                                   53.76149 (Kcal/Mol)
 Warning -- explicit consideration of   5 degrees of freedom as
           vibrations may cause significant error
 Vibrational temperatures:    250.90   572.50   676.53   691.92   847.24
          (Kelvin)            936.91  1022.25  1064.88  1184.00  1248.99
                             1324.35  1377.09  1419.23  1455.29  1551.65
                             1588.92  1641.83  1779.53  1866.51  1961.12
                             2065.08  2139.69  2210.72  2310.38  2927.61
                             4460.41  4486.06  4520.78  4525.21

 Zero-point correction=                           0.085674 (Hartree/Particle)
 Thermal correction to Energy=                    0.090839
 Thermal correction to Enthalpy=                  0.091784
 Thermal correction to Gibbs Free Energy=         0.056811
 Sum of electronic and zero-point Energies=           -323.524643
 Sum of electronic and thermal Energies=              -323.519478
 Sum of electronic and thermal Enthalpies=            -323.518534
 Sum of electronic and thermal Free Energies=         -323.553506

                     E (Thermal)             CV                S
                      KCal/Mol        Cal/Mol-Kelvin    Cal/Mol-Kelvin
 Total                   57.003             19.852             73.606
 Electronic               0.000              0.000              0.000
 Translational            0.889              2.981             39.566
 Rotational               0.889              2.981             26.753
 Vibrational             55.225             13.891              7.286
 Vibration     1          0.627              1.874              2.388
 Vibration     2          0.764              1.475              0.970
 Vibration     3          0.827              1.316              0.737
 Vibration     4          0.837              1.292              0.708
 Vibration     5          0.946              1.056              0.469

 Optimization completed.
    -- Stationary point found.
 Normal termination of Gaussian 09 at Sat Aug 28 00:56:06 2021.
