 Gaussian 09, Revision E.01,
 Gaussian 09:  EM64L-G09RevE.01 30-Nov-2015

 ---------------------
 #p G3 geom=checkpoint
 ---------------------

 ---------
 PY_H2O_G3
 ---------
 Structure from the checkpoint file:  "PY_H2O_G3.chk"
 Charge =  0 Multiplicity = 1

 SCF Done:  E(RHF) =  -397.590886401     A.U. after   15 cycles
 SCF Done:  E(RHF) =  -397.594398285     A.U. after   13 cycles
 SCF Done:  E(RHF) =  -397.595125233     A.U. after   12 cycles
 SCF Done:  E(RHF) =  -397.595640225     A.U. after   12 cycles
 SCF Done:  E(RHF) =  -397.595759312     A.U. after   10 cycles
 SCF Done:  E(RHF) =  -397.595812291     A.U. after   11 cycles
 SCF Done:  E(RHF) =  -397.595827903     A.U. after   10 cycles
 SCF Done:  E(RHF) =  -397.595837327     A.U. after   10 cycles
 SCF Done:  E(RHF) =  -397.595849681     A.U. after   10 cycles
 SCF Done:  E(RHF) =  -397.595862324     A.U. after   10 cycles
 Optimization completed.
    -- Stationary point found.
 Normal termination of Gaussian 09 at Fri Sep  3 00:22:36 2021.

 -------------------------------------------------------
 #P Geom=AllCheck Guess=TCheck SCRF=Check HF/GTBas1 Freq
 -------------------------------------------------------

 Structure from the checkpoint file:  "PY_H2O_G3.chk"
 ---------
 PY_H2O_G3
 ---------
 Charge =  0 Multiplicity = 1

  Exact polarizability:  80.467   5.213  69.257   1.451  -0.119  26.270
 Approx polarizability:  71.046   5.623  63.595   0.867  -0.072  28.745

                      1                      2                      3
                      A                      A                      A
 Frequencies --     62.7066               128.3112               180.0178
 Red. masses --      4.5798                 5.8845                 6.3568
 Frc consts  --      0.0106                 0.0571                 0.1214
 IR Inten    --      4.0100                25.0950                 1.0756
 Raman Activ --      3.8078                 0.2975                 0.2718

                      4                      5                      6
                      A                      A                      A
 Frequencies --    200.0847               238.7322               378.9793
 Red. masses --      4.9530                 1.0849                 1.1247
 Frc consts  --      0.1168                 0.0364                 0.0952
 IR Inten    --      1.8429               118.2603               104.9772
 Raman Activ --      1.4928                 4.1375                 0.9795

                      7                      8                      9
                      A                      A                      A
 Frequencies --    421.3695               515.3705               558.6129
 Red. masses --      3.2723                 6.3453                 2.4070
 Frc consts  --      0.3423                 0.9930                 0.4425
 IR Inten    --      1.6572                31.0120                31.0705
 Raman Activ --      2.4149                 1.0999                 0.4563

                     10                     11                     12
                      A                      A                      A
 Frequencies --    596.8290               668.0256               710.6465
 Red. masses --      7.9465                 6.1698                 1.0799
 Frc consts  --      1.6677                 1.6222                 0.3213
 IR Inten    --     11.0460                 8.5226               407.6790
 Raman Activ --      4.1325                 2.9380                 5.8299

                     13                     14                     15
                      A                      A                      A
 Frequencies --    808.0858               850.7276               896.8479
 Red. masses --      2.0291                 1.4632                 5.5573
 Frc consts  --      0.7807                 0.6239                 2.6336
 IR Inten    --     10.7504                33.5935                 9.5156
 Raman Activ --      1.6474                 3.0004                13.9152

                     16                     17                     18
                      A                      A                      A
 Frequencies --    913.9008               950.5447              1078.8463
 Red. masses --      1.1744                 1.8947                 3.9196
 Frc consts  --      0.5779                 1.0087                 2.6879
 IR Inten    --    122.6880                87.3412                19.6564
 Raman Activ --      2.0369                 1.9329                 5.1565

                     19                     20                     21
                      A                      A                      A
 Frequencies --   1082.5134              1088.3480              1136.7557
 Red. masses --      2.9585                 1.3068                 1.3160
 Frc consts  --      2.0426                 0.9120                 1.0020
 IR Inten    --      7.7689                 1.7818                 0.2195
 Raman Activ --      1.0432                 1.2979                 2.8067

                     22                     23                     24
                      A                      A                      A
 Frequencies --   1216.5286              1271.2176              1343.4402
 Red. masses --      1.7060                 1.1171                 1.2685
 Frc consts  --      1.4875                 1.0636                 1.3488
 IR Inten    --     12.7516                20.6524                29.0986
 Raman Activ --      8.8346                 5.2753                 9.7367

                     25                     26                     27
                      A                      A                      A
 Frequencies --   1374.2312              1526.2460              1601.1094
 Red. masses --      3.7296                 1.5820                 1.8939
 Frc consts  --      4.1499                 2.1712                 2.8605
 IR Inten    --     14.0766                 6.4806                15.5335
 Raman Activ --     41.0344                19.3565                 5.3013

                     28                     29                     30
                      A                      A                      A
 Frequencies --   1645.4914              1751.6714              1840.7266
 Red. masses --      2.2519                 4.1573                 3.4246
 Frc consts  --      3.5924                 7.5157                 6.8365
 IR Inten    --     31.8007                56.7904               123.0803
 Raman Activ --     35.1025                51.0841                 6.5091

                     31                     32                     33
                      A                      A                      A
 Frequencies --   1855.7112              1922.3417              3371.7508
 Red. masses --      1.1524                 4.9883                 1.0908
 Frc consts  --      2.3382                10.8609                 7.3061
 IR Inten    --    144.4202               834.2957                14.9790
 Raman Activ --      3.3887                 9.9963                86.5036

                     34                     35                     36
                      A                      A                      A
 Frequencies --   3404.4703              3415.1927              3424.2805
 Red. masses --      1.0900                 1.0963                 1.1013
 Frc consts  --      7.4432                 7.5338                 7.6085
 IR Inten    --      1.4924                 6.0166                 9.0633
 Raman Activ --     63.5772                60.7428               181.3646

                     37                     38                     39
                      A                      A                      A
 Frequencies --   3752.5951              3953.3275              4144.6414
 Red. masses --      1.0815                 1.0554                 1.0741
 Frc consts  --      8.9731                 9.7185                10.8706
 IR Inten    --    277.8387               261.7710               113.4182
 Raman Activ --     96.0037                61.2931                63.1470

 - Thermochemistry -
 -------------------
 Temperature   298.150 Kelvin.  Pressure   1.00000 Atm.
 Atom     1 has atomic number  8 and mass  15.99491

 Molecular mass:   113.04768 amu.
 Principal axes and moments of inertia in atomic units:
                           1         2         3
     Eigenvalues --   450.073751319.501261765.44572
           X            0.99995  -0.00862   0.00583
           Y            0.00864   0.99996  -0.00314
           Z           -0.00580   0.00319   0.99998
 This molecule is an asymmetric top.
 Rotational symmetry number  1.
 Warning -- assumption of classical behavior for rotation
           may cause significant error
 Rotational temperatures (Kelvin)      0.19244     0.06564     0.04906
 Rotational constants (GHZ):           4.00988     1.36774     1.02226
 Zero-point vibrational energy     336636.5 (Joules/Mol)
                                   80.45806 (Kcal/Mol)
 Warning -- explicit consideration of  10 degrees of freedom as
           vibrations may cause significant error
 Vibrational temperatures:     90.22   184.61   259.01   287.88   343.48
          (Kelvin)            545.27   606.26   741.50   803.72   858.70
                              961.14  1022.46  1162.65  1224.01  1290.36
                             1314.90  1367.62  1552.22  1557.49  1565.89
                             1635.54  1750.31  1829.00  1932.91  1977.21
                             2195.92  2303.64  2367.49  2520.26  2648.39
                             2669.95  2765.82  4851.19  4898.27  4913.69
                             4926.77  5399.14  5687.95  5963.21

 Zero-point correction=                           0.128218 (Hartree/Particle)
 Thermal correction to Energy=                    0.136064
 Thermal correction to Enthalpy=                  0.137008
 Thermal correction to Gibbs Free Energy=         0.095447
 Sum of electronic and zero-point Energies=           -397.467666
 Sum of electronic and thermal Energies=              -397.459820
 Sum of electronic and thermal Enthalpies=            -397.458876
 Sum of electronic and thermal Free Energies=         -397.500437

                     E (Thermal)             CV                S
                      KCal/Mol        Cal/Mol-Kelvin    Cal/Mol-Kelvin
 Total                   85.381             27.979             87.472
 Electronic               0.000              0.000              0.000
 Translational            0.889              2.981             40.084
 Rotational               0.889              2.981             28.441
 Vibrational             83.604             22.017             18.947
 Vibration     1          0.597              1.972              4.370
 Vibration     2          0.611              1.925              2.971
 Vibration     3          0.629              1.867              2.328
 Vibration     4          0.638              1.840              2.132
 Vibration     5          0.657              1.781              1.812
 Vibration     6          0.749              1.515              1.043
 Vibration     7          0.784              1.424              0.887
 Vibration     8          0.870              1.216              0.621
 Vibration     9          0.914              1.121              0.527
 Vibration    10          0.955              1.039              0.455

 Normal termination of Gaussian 09 at Fri Sep  3 00:22:51 2021.

 ------------------------------------------------------------------
 #P Geom=AllCheck Guess=TCheck SCRF=Check MP2(Full)/GTBas1 Opt=RCFC
 ------------------------------------------------------------------

 Structure from the checkpoint file:  "PY_H2O_G3.chk"
 ---------
 PY_H2O_G3
 ---------
 Charge =  0 Multiplicity = 1

 SCF Done:  E(RHF) =  -397.595884002     A.U. after    1 cycles
 E2 =    -0.1182729674D+01 EUMP2 =    -0.39877861367558D+03
 SCF Done:  E(RHF) =  -397.591560518     A.U. after   13 cycles
 E2 =    -0.1192422182D+01 EUMP2 =    -0.39878398269998D+03
 SCF Done:  E(RHF) =  -397.589560345     A.U. after   12 cycles
 E2 =    -0.1194699107D+01 EUMP2 =    -0.39878425945185D+03
 SCF Done:  E(RHF) =  -397.589808671     A.U. after   11 cycles
 E2 =    -0.1194495686D+01 EUMP2 =    -0.39878430435765D+03
 SCF Done:  E(RHF) =  -397.589810468     A.U. after   10 cycles
 E2 =    -0.1194496990D+01 EUMP2 =    -0.39878430745728D+03
 SCF Done:  E(RHF) =  -397.589804070     A.U. after    8 cycles
 E2 =    -0.1194503560D+01 EUMP2 =    -0.39878430762993D+03
 Optimization completed.
    -- Stationary point found.
 Normal termination of Gaussian 09 at Fri Sep  3 00:24:03 2021.

 ------------------------------------------------------------------
 #P Geom=AllCheck Guess=TCheck SCRF=Check QCISD(T,E4T,FrzG3)/GTBas1
 ------------------------------------------------------------------

 Structure from the checkpoint file:  "PY_H2O_G3.chk"
 ---------
 PY_H2O_G3
 ---------
 Charge =  0 Multiplicity = 1

 SCF Done:  E(RHF) =  -397.589804070     A.U. after    1 cycles
 E2 =    -0.1160539813D+01 EUMP2 =    -0.39875034388306D+03
 Normal termination of Gaussian 09 at Fri Sep  3 00:33:29 2021.

 ---------------------------------------------------------
 #P Geom=AllCheck Guess=TCheck SCRF=Check MP4=FrzG3/GTBas2
 ---------------------------------------------------------

 Structure from the checkpoint file:  "PY_H2O_G3.chk"
 ---------
 PY_H2O_G3
 ---------
 Charge =  0 Multiplicity = 1

 SCF Done:  E(RHF) =  -397.605073651     A.U. after   13 cycles
 E2 =    -0.1177512307D+01 EUMP2 =    -0.39878258595813D+03
 Normal termination of Gaussian 09 at Fri Sep  3 00:39:57 2021.

 ---------------------------------------------------------
 #P Geom=AllCheck Guess=TCheck SCRF=Check MP4=FrzG3/GTBas3
 ---------------------------------------------------------

 Structure from the checkpoint file:  "PY_H2O_G3.chk"
 ---------
 PY_H2O_G3
 ---------
 Charge =  0 Multiplicity = 1

 SCF Done:  E(RHF) =  -397.638889379     A.U. after   12 cycles
 E2 =    -0.1405774138D+01 EUMP2 =    -0.39904466351724D+03
 Normal termination of Gaussian 09 at Fri Sep  3 01:24:40 2021.

                         Standard orientation:
 ---------------------------------------------------------------------
 Center     Atomic      Atomic             Coordinates (Angstroms)
 Number     Number       Type             X           Y           Z
 ---------------------------------------------------------------------
      1          8           0        1.258523    1.435769   -0.014821
      2          7           0        0.266938   -0.638291   -0.009899
      3          6           0        0.211491    0.753950   -0.005012
      4          6           0       -1.129215    1.281598    0.012201
      5          6           0       -0.813581   -1.466510   -0.009095
      6          6           0       -2.224542    0.459104    0.015863
      7          6           0       -2.079145   -0.951231    0.004512
      8          1           0        2.722760    0.265340   -0.128090
      9          1           0       -1.223679    2.362123    0.018431
     10          1           0       -0.596016   -2.529539   -0.020278
     11          1           0       -3.220813    0.894889    0.026674
     12          1           0       -2.937513   -1.612086    0.004638
     13          8           0        3.093724   -0.647136   -0.073139
     14          1           0        3.554105   -0.664967    0.780268
     15          1           0        1.224570   -1.018253   -0.019493
 ---------------------------------------------------------------------

 SCF Done:  E(RHF) =  -397.739360128     A.U. after   13 cycles
 E2 =    -0.1826476413D+01 EUMP2 =    -0.39956583654089D+03

 The electronic state is 1-A.
 Alpha  occ. eigenvalues --  -20.55442 -20.51651 -15.62304 -11.36021 -11.31501
 Alpha  occ. eigenvalues --  -11.27693 -11.24494 -11.24171  -1.37744  -1.33609
 Alpha  occ. eigenvalues --   -1.27697  -1.11170  -1.03508  -0.89235  -0.86576
 Alpha  occ. eigenvalues --   -0.75924  -0.71287  -0.69579  -0.67425  -0.64482
 Alpha  occ. eigenvalues --   -0.61945  -0.60881  -0.57783  -0.56218  -0.54101
 Alpha  occ. eigenvalues --   -0.50218  -0.49068  -0.43380  -0.42618  -0.32029
 Alpha virt. eigenvalues --    0.03267   0.04310   0.05207   0.06547   0.07081
 Alpha virt. eigenvalues --    0.07295   0.09553   0.10372   0.11255   0.12342
 Alpha virt. eigenvalues --    0.12617   0.14030   0.14331   0.15561   0.16056

 Mulliken charges:
               1
     1  O   -0.593400
     2  N   -0.358595
     3  C   -0.001706
     4  C    0.117369
     5  C    0.158898
     6  C    0.011523
     7  C   -0.447696
     8  H    0.312223
     9  H    0.188144
    10  H    0.172080
    11  H    0.196951
    12  H    0.159360
    13  O   -0.578382
    14  H    0.274639
    15  H    0.388594
 Sum of Mulliken charges =  -0.00000

 Dipole moment (field-independent basis, Debye):
    X=             -3.1881    Y=             -2.6073    Z=              1.3478  Tot=              4.3334
 Quadrupole moment (field-independent basis, Debye-Ang):
   XX=            -44.2876   YY=            -46.4414   ZZ=            -49.7085
   XY=             -2.6623   XZ=              5.4452   YZ=             -1.1319

 Normal termination of Gaussian 09 at Fri Sep  3 01:29:07 2021.
