 Gaussian 09, Revision E.01,
 Gaussian 09:  EM64L-G09RevE.01 30-Nov-2015

 --------------------
 #p opt freq wB97/gen
 --------------------

 ---------------------
 H2O_wB97_PC2_OPT_FREQ
 ---------------------
 Symbolic Z-matrix:
 Charge =  0 Multiplicity = 1

 SCF Done:  E(RwB97) =  -76.4496869128     A.U. after   12 cycles
 SCF Done:  E(RwB97) =  -76.4501088980     A.U. after   11 cycles
 SCF Done:  E(RwB97) =  -76.4501164104     A.U. after    8 cycles
 Optimization completed.
    -- Stationary point found.
 Normal termination of Gaussian 09 at Fri Aug 27 00:03:31 2021.

 -----------------------------------------------------------------
 #P Geom=AllCheck Guess=TCheck SCRF=Check GenChk RwB97/ChkBas Freq
 -----------------------------------------------------------------

 Structure from the checkpoint file:  "H2O_wB97_PC2_OPT_FREQ.chk"
 ---------------------
 H2O_wB97_PC2_OPT_FREQ
 ---------------------
 Charge =  0 Multiplicity = 1

                         Standard orientation:
 ---------------------------------------------------------------------
 Center     Atomic      Atomic             Coordinates (Angstroms)
 Number     Number       Type             X           Y           Z
 ---------------------------------------------------------------------
      1          8           0       -0.000000   -0.000000    0.116146
      2          1           0        0.000000   -0.761225   -0.464585
      3          1           0        0.000000    0.761225   -0.464585
 ---------------------------------------------------------------------

 SCF Done:  E(RwB97) =  -76.4501164104     A.U. after    1 cycles

 The electronic state is 1-A1.
 Alpha  occ. eigenvalues --  -18.99826  -1.14871  -0.65884  -0.51243  -0.43808
 Alpha virt. eigenvalues --    0.10048   0.14992   0.38632   0.39046   0.44598
 Alpha virt. eigenvalues --    0.44982   0.55418   0.78948   0.87934   0.90819
 Alpha virt. eigenvalues --    0.98644   1.15736   1.28392   1.32863   1.55837

 Mulliken charges:
               1
     1  O   -0.413374
     2  H    0.206687
     3  H    0.206687
 Sum of Mulliken charges =   0.00000

 Dipole moment (field-independent basis, Debye):
    X=              0.0000    Y=              0.0000    Z=             -2.0125  Tot=              2.0125
 Quadrupole moment (field-independent basis, Debye-Ang):
   XX=             -7.6496   YY=             -4.3719   ZZ=             -6.4024
   XY=              0.0000   XZ=             -0.0000   YZ=             -0.0000

  Exact polarizability:   6.286  -0.000   8.396  -0.000   0.000   7.319
 Approx polarizability:   5.257   0.000   7.954  -0.000  -0.000   6.710

                      1                      2                      3
                     A1                     A1                     B2
 Frequencies --   1621.4747              3889.2735              3995.3783
 Red. masses --      1.0830                 1.0449                 1.0827
 Frc consts  --      1.6777                 9.3120                10.1827
 IR Inten    --     73.8600                 9.6167                66.2120

 - Thermochemistry -
 -------------------
 Temperature   298.150 Kelvin.  Pressure   1.00000 Atm.
 Atom     1 has atomic number  8 and mass  15.99491

 Molecular mass:    18.01056 amu.
 Principal axes and moments of inertia in atomic units:
                           1         2         3
     Eigenvalues --     2.15585   4.17098   6.32683
           X            0.00000  -0.00000   1.00000
           Y            1.00000   0.00000  -0.00000
           Z           -0.00000   1.00000   0.00000
 This molecule is an asymmetric top.
 Rotational symmetry number  2.
 Rotational temperatures (Kelvin)     40.17624    20.76580    13.68992
 Rotational constants (GHZ):         837.13793   432.68954   285.25200
 Zero-point vibrational energy      56859.3 (Joules/Mol)
                                   13.58969 (Kcal/Mol)
 Vibrational temperatures:   2332.94  5595.79  5748.45
          (Kelvin)

 Zero-point correction=                           0.021657 (Hartree/Particle)
 Thermal correction to Energy=                    0.024492
 Thermal correction to Enthalpy=                  0.025436
 Thermal correction to Gibbs Free Energy=         0.004029
 Sum of electronic and zero-point Energies=            -76.428460
 Sum of electronic and thermal Energies=               -76.425624
 Sum of electronic and thermal Enthalpies=             -76.424680
 Sum of electronic and thermal Free Energies=          -76.446088

                     E (Thermal)             CV                S
                      KCal/Mol        Cal/Mol-Kelvin    Cal/Mol-Kelvin
 Total                   15.369              6.010             45.056
 Electronic               0.000              0.000              0.000
 Translational            0.889              2.981             34.608
 Rotational               0.889              2.981             10.441
 Vibrational             13.592              0.049              0.007

 Optimization completed.
    -- Stationary point found.
 Normal termination of Gaussian 09 at Fri Aug 27 00:03:44 2021.
