 Gaussian 09, Revision E.01,
 Gaussian 09:  EM64L-G09RevE.01 30-Nov-2015

 ------------------------
 #p opt freq TPSSTPSS/gen
 ------------------------

 -------------------------
 H2O_TPSSTPSS_PC2_OPT_FREQ
 -------------------------
 Symbolic Z-matrix:
 Charge =  0 Multiplicity = 1

 SCF Done:  E(RTPSS-TPSS) =  -76.4682856884     A.U. after   10 cycles
 SCF Done:  E(RTPSS-TPSS) =  -76.4689072746     A.U. after    9 cycles
 SCF Done:  E(RTPSS-TPSS) =  -76.4689283692     A.U. after    6 cycles
 Optimization completed.
    -- Stationary point found.
 Normal termination of Gaussian 09 at Thu Aug 26 23:59:55 2021.

 ---------------------------------------------------------------------
 #P Geom=AllCheck Guess=TCheck SCRF=Check GenChk RTPSSTPSS/ChkBas Freq
 ---------------------------------------------------------------------

 Structure from the checkpoint file:  "H2O_TPSSTPSS_PC2_OPT_FREQ.chk"
 -------------------------
 H2O_TPSSTPSS_PC2_OPT_FREQ
 -------------------------
 Charge =  0 Multiplicity = 1

                         Standard orientation:
 ---------------------------------------------------------------------
 Center     Atomic      Atomic             Coordinates (Angstroms)
 Number     Number       Type             X           Y           Z
 ---------------------------------------------------------------------
      1          8           0       -0.000000   -0.000000    0.118609
      2          1           0        0.000000   -0.764156   -0.474436
      3          1           0        0.000000    0.764156   -0.474436
 ---------------------------------------------------------------------

 SCF Done:  E(RTPSS-TPSS) =  -76.4689283692     A.U. after    1 cycles

 The electronic state is 1-A1.
 Alpha  occ. eigenvalues --  -18.88590  -0.94589  -0.48383  -0.34295  -0.26500
 Alpha virt. eigenvalues --   -0.00492   0.05711   0.25558   0.27305   0.31266
 Alpha virt. eigenvalues --    0.32569   0.43233   0.65027   0.74092   0.76990
 Alpha virt. eigenvalues --    0.84070   1.02209   1.14655   1.19579   1.39852

 Mulliken charges:
               1
     1  O   -0.433631
     2  H    0.216815
     3  H    0.216815
 Sum of Mulliken charges =   0.00000

 Dipole moment (field-independent basis, Debye):
    X=              0.0000    Y=             -0.0000    Z=             -1.9532  Tot=              1.9532
 Quadrupole moment (field-independent basis, Debye-Ang):
   XX=             -7.6437   YY=             -4.4218   ZZ=             -6.3819
   XY=              0.0000   XZ=             -0.0000   YZ=              0.0000

  Exact polarizability:   6.598   0.000   8.865   0.000   0.000   7.764
 Approx polarizability:   7.739   0.000  12.316  -0.000  -0.000  10.530

                      1                      2                      3
                     A1                     A1                     B2
 Frequencies --   1627.0981              3717.4775              3821.3407
 Red. masses --      1.0832                 1.0447                 1.0817
 Frc consts  --      1.6896                 8.5060                 9.3068
 IR Inten    --     64.8305                 2.1683                37.6692

 - Thermochemistry -
 -------------------
 Temperature   298.150 Kelvin.  Pressure   1.00000 Atm.
 Atom     1 has atomic number  8 and mass  15.99491

 Molecular mass:    18.01056 amu.
 Principal axes and moments of inertia in atomic units:
                           1         2         3
     Eigenvalues --     2.24824   4.20317   6.45141
           X            0.00000  -0.00000   1.00000
           Y            1.00000  -0.00000  -0.00000
           Z            0.00000   1.00000   0.00000
 This molecule is an asymmetric top.
 Rotational symmetry number  2.
 Rotational temperatures (Kelvin)     38.52518    20.60677    13.42556
 Rotational constants (GHZ):         802.73539   429.37593   279.74360
 Zero-point vibrational energy      54824.4 (Joules/Mol)
                                   13.10334 (Kcal/Mol)
 Vibrational temperatures:   2341.03  5348.61  5498.05
          (Kelvin)

 Zero-point correction=                           0.020881 (Hartree/Particle)
 Thermal correction to Energy=                    0.023717
 Thermal correction to Enthalpy=                  0.024661
 Thermal correction to Gibbs Free Energy=         0.003221
 Sum of electronic and zero-point Energies=            -76.448047
 Sum of electronic and thermal Energies=               -76.445211
 Sum of electronic and thermal Enthalpies=             -76.444267
 Sum of electronic and thermal Free Energies=          -76.465707

                     E (Thermal)             CV                S
                      KCal/Mol        Cal/Mol-Kelvin    Cal/Mol-Kelvin
 Total                   14.883              6.009             45.125
 Electronic               0.000              0.000              0.000
 Translational            0.889              2.981             34.608
 Rotational               0.889              2.981             10.509
 Vibrational             13.105              0.048              0.007

 Optimization completed.
    -- Stationary point found.
 Normal termination of Gaussian 09 at Fri Aug 27 00:00:07 2021.
