 Gaussian 09, Revision E.01,
 Gaussian 09:  EM64L-G09RevE.01 30-Nov-2015

 -------------------
 #p opt freq M06/gen
 -------------------

 --------------------
 H2O_M06_PC2_OPT_FREQ
 --------------------
 Symbolic Z-matrix:
 Charge =  0 Multiplicity = 1

 SCF Done:  E(RM06) =  -76.4277566562     A.U. after   11 cycles
 SCF Done:  E(RM06) =  -76.4282809080     A.U. after   10 cycles
 SCF Done:  E(RM06) =  -76.4282889270     A.U. after    6 cycles
 Optimization completed.
    -- Stationary point found.
 Normal termination of Gaussian 09 at Fri Aug 27 00:04:06 2021.

 ----------------------------------------------------------------
 #P Geom=AllCheck Guess=TCheck SCRF=Check GenChk RM06/ChkBas Freq
 ----------------------------------------------------------------

 Structure from the checkpoint file:  "H2O_M06_PC2_OPT_FREQ.chk"
 --------------------
 H2O_M06_PC2_OPT_FREQ
 --------------------
 Charge =  0 Multiplicity = 1

                         Standard orientation:
 ---------------------------------------------------------------------
 Center     Atomic      Atomic             Coordinates (Angstroms)
 Number     Number       Type             X           Y           Z
 ---------------------------------------------------------------------
      1          8           0       -0.000000   -0.000000    0.116261
      2          1           0        0.000000   -0.758012   -0.465043
      3          1           0        0.000000    0.758012   -0.465043
 ---------------------------------------------------------------------

 SCF Done:  E(RM06) =  -76.4282889270     A.U. after    1 cycles

 The electronic state is 1-A1.
 Alpha  occ. eigenvalues --  -19.20290  -1.03894  -0.54607  -0.40479  -0.33080
 Alpha virt. eigenvalues --    0.00948   0.03959   0.27606   0.28462   0.33808
 Alpha virt. eigenvalues --    0.35757   0.44359   0.66696   0.75725   0.77494
 Alpha virt. eigenvalues --    0.85790   1.01947   1.14796   1.20451   1.41642

 Mulliken charges:
               1
     1  O   -0.428492
     2  H    0.214246
     3  H    0.214246
 Sum of Mulliken charges =   0.00000

 Dipole moment (field-independent basis, Debye):
    X=              0.0000    Y=             -0.0000    Z=             -1.9801  Tot=              1.9801
 Quadrupole moment (field-independent basis, Debye-Ang):
   XX=             -7.5098   YY=             -4.3050   ZZ=             -6.2834
   XY=              0.0000   XZ=             -0.0000   YZ=              0.0000

  Exact polarizability:   6.246   0.000   8.353   0.000   0.000   7.252
 Approx polarizability:   6.588   0.000  10.230  -0.000   0.000   8.633

                      1                      2                      3
                     A1                     A1                     B2
 Frequencies --   1616.8066              3891.5175              4012.4639
 Red. masses --      1.0829                 1.0450                 1.0824
 Frc consts  --      1.6678                 9.3237                10.2673
 IR Inten    --     74.9813                10.1355                73.3574

 - Thermochemistry -
 -------------------
 Temperature   298.150 Kelvin.  Pressure   1.00000 Atm.
 Atom     1 has atomic number  8 and mass  15.99491

 Molecular mass:    18.01056 amu.
 Principal axes and moments of inertia in atomic units:
                           1         2         3
     Eigenvalues --     2.16010   4.13585   6.29595
           X            0.00000  -0.00000   1.00000
           Y            1.00000  -0.00000  -0.00000
           Z            0.00000   1.00000   0.00000
 This molecule is an asymmetric top.
 Rotational symmetry number  2.
 Rotational temperatures (Kelvin)     40.09715    20.94220    13.75707
 Rotational constants (GHZ):         835.49012   436.36513   286.65114
 Zero-point vibrational energy      56947.0 (Joules/Mol)
                                   13.61065 (Kcal/Mol)
 Vibrational temperatures:   2326.22  5599.02  5773.03
          (Kelvin)

 Zero-point correction=                           0.021690 (Hartree/Particle)
 Thermal correction to Energy=                    0.024526
 Thermal correction to Enthalpy=                  0.025470
 Thermal correction to Gibbs Free Energy=         0.004067
 Sum of electronic and zero-point Energies=            -76.406599
 Sum of electronic and thermal Energies=               -76.403763
 Sum of electronic and thermal Enthalpies=             -76.402819
 Sum of electronic and thermal Free Energies=          -76.424222

                     E (Thermal)             CV                S
                      KCal/Mol        Cal/Mol-Kelvin    Cal/Mol-Kelvin
 Total                   15.390              6.011             45.045
 Electronic               0.000              0.000              0.000
 Translational            0.889              2.981             34.608
 Rotational               0.889              2.981             10.429
 Vibrational             13.613              0.050              0.007

 Optimization completed.
    -- Stationary point found.
 Normal termination of Gaussian 09 at Fri Aug 27 00:04:18 2021.
