 Gaussian 09, Revision E.01,
 Gaussian 09:  EM64L-G09RevE.01 30-Nov-2015

 -----------------------
 #p opt freq LC-wPBE/gen
 -----------------------

 ------------------------
 H2O_LC-wPBE_PC2_OPT_FREQ
 ------------------------
 Symbolic Z-matrix:
 Charge =  0 Multiplicity = 1

 SCF Done:  E(RLC-wPBE) =  -76.4261101755     A.U. after   10 cycles
 SCF Done:  E(RLC-wPBE) =  -76.4264716830     A.U. after   10 cycles
 SCF Done:  E(RLC-wPBE) =  -76.4264787404     A.U. after    7 cycles
 Optimization completed.
    -- Stationary point found.
 Normal termination of Gaussian 09 at Fri Aug 27 00:02:55 2021.

 --------------------------------------------------------------------
 #P Geom=AllCheck Guess=TCheck SCRF=Check GenChk RLC-wPBE/ChkBas Freq
 --------------------------------------------------------------------

 Structure from the checkpoint file:  "H2O_LC-wPBE_PC2_OPT_FREQ.chk"
 ------------------------
 H2O_LC-wPBE_PC2_OPT_FREQ
 ------------------------
 Charge =  0 Multiplicity = 1

                         Standard orientation:
 ---------------------------------------------------------------------
 Center     Atomic      Atomic             Coordinates (Angstroms)
 Number     Number       Type             X           Y           Z
 ---------------------------------------------------------------------
      1          8           0        0.000000   -0.000000    0.115782
      2          1           0        0.000000   -0.762789   -0.463127
      3          1           0        0.000000    0.762789   -0.463127
 ---------------------------------------------------------------------

 SCF Done:  E(RLC-wPBE) =  -76.4264787404     A.U. after    1 cycles

 The electronic state is 1-A1.
 Alpha  occ. eigenvalues --  -18.96523  -1.14533  -0.66246  -0.51414  -0.44135
 Alpha virt. eigenvalues --    0.09132   0.13691   0.38329   0.38590   0.44295
 Alpha virt. eigenvalues --    0.44966   0.55198   0.79135   0.88058   0.91052
 Alpha virt. eigenvalues --    0.98865   1.15572   1.28600   1.32551   1.55866

 Mulliken charges:
               1
     1  O   -0.422568
     2  H    0.211284
     3  H    0.211284
 Sum of Mulliken charges =   0.00000

 Dipole moment (field-independent basis, Debye):
    X=              0.0000    Y=             -0.0000    Z=             -2.0292  Tot=              2.0292
 Quadrupole moment (field-independent basis, Debye-Ang):
   XX=             -7.6100   YY=             -4.3167   ZZ=             -6.3738
   XY=              0.0000   XZ=             -0.0000   YZ=              0.0000

  Exact polarizability:   6.224   0.000   8.303  -0.000   0.000   7.228
 Approx polarizability:   5.185   0.000   7.897  -0.000   0.000   6.629

                      1                      2                      3
                     A1                     A1                     B2
 Frequencies --   1608.4981              3896.8705              4000.5471
 Red. masses --      1.0833                 1.0446                 1.0830
 Frc consts  --      1.6514                 9.3458                10.2117
 IR Inten    --     77.7947                10.8485                71.9223

 - Thermochemistry -
 -------------------
 Temperature   298.150 Kelvin.  Pressure   1.00000 Atm.
 Atom     1 has atomic number  8 and mass  15.99491

 Molecular mass:    18.01056 amu.
 Principal axes and moments of inertia in atomic units:
                           1         2         3
     Eigenvalues --     2.14234   4.18814   6.33048
           X            0.00000  -0.00000   1.00000
           Y            1.00000  -0.00000  -0.00000
           Z            0.00000   1.00000   0.00000
 This molecule is an asymmetric top.
 Rotational symmetry number  2.
 Rotational temperatures (Kelvin)     40.42953    20.68073    13.68203
 Rotational constants (GHZ):         842.41575   430.91695   285.08749
 Zero-point vibrational energy      56858.0 (Joules/Mol)
                                   13.58939 (Kcal/Mol)
 Vibrational temperatures:   2314.27  5606.72  5755.89
          (Kelvin)

 Zero-point correction=                           0.021656 (Hartree/Particle)
 Thermal correction to Energy=                    0.024492
 Thermal correction to Enthalpy=                  0.025436
 Thermal correction to Gibbs Free Energy=         0.004029
 Sum of electronic and zero-point Energies=            -76.404823
 Sum of electronic and thermal Energies=               -76.401987
 Sum of electronic and thermal Enthalpies=             -76.401043
 Sum of electronic and thermal Free Energies=          -76.422450

                     E (Thermal)             CV                S
                      KCal/Mol        Cal/Mol-Kelvin    Cal/Mol-Kelvin
 Total                   15.369              6.013             45.055
 Electronic               0.000              0.000              0.000
 Translational            0.889              2.981             34.608
 Rotational               0.889              2.981             10.439
 Vibrational             13.591              0.051              0.007

 Optimization completed.
    -- Stationary point found.
 Normal termination of Gaussian 09 at Fri Aug 27 00:03:07 2021.
