 Gaussian 09, Revision E.01,
 Gaussian 09:  EM64L-G09RevE.01 30-Nov-2015

 -------------------------
 #p opt freq BHandHLYP/gen
 -------------------------

 --------------------------
 H2O_BHandHLYP_PC2_OPT_FREQ
 --------------------------
 Symbolic Z-matrix:
 Charge =  0 Multiplicity = 1

 SCF Done:  E(RBHandHLYP) =  -76.4236811933     A.U. after   10 cycles
 SCF Done:  E(RBHandHLYP) =  -76.4243140923     A.U. after    9 cycles
 SCF Done:  E(RBHandHLYP) =  -76.4243229588     A.U. after    7 cycles
 Optimization completed.
    -- Stationary point found.
 Normal termination of Gaussian 09 at Fri Aug 27 00:01:44 2021.

 ----------------------------------------------------------------------
 #P Geom=AllCheck Guess=TCheck SCRF=Check GenChk RBHandHLYP/ChkBas Freq
 ----------------------------------------------------------------------

 Structure from the checkpoint file:  "H2O_BHandHLYP_PC2_OPT_FREQ.chk"
 --------------------------
 H2O_BHandHLYP_PC2_OPT_FREQ
 --------------------------
 Charge =  0 Multiplicity = 1

                         Standard orientation:
 ---------------------------------------------------------------------
 Center     Atomic      Atomic             Coordinates (Angstroms)
 Number     Number       Type             X           Y           Z
 ---------------------------------------------------------------------
      1          8           0        0.000000   -0.000000    0.114377
      2          1           0        0.000000   -0.757054   -0.457509
      3          1           0        0.000000    0.757054   -0.457509
 ---------------------------------------------------------------------

 SCF Done:  E(RBHandHLYP) =  -76.4243229588     A.U. after    1 cycles

 The electronic state is 1-A1.
 Alpha  occ. eigenvalues --  -19.67966  -1.15557  -0.62002  -0.47299  -0.39990
 Alpha virt. eigenvalues --    0.03805   0.09326   0.32703   0.33080   0.38379
 Alpha virt. eigenvalues --    0.39284   0.50461   0.74089   0.82829   0.86181
 Alpha virt. eigenvalues --    0.93931   1.10505   1.23939   1.28820   1.52811

 Mulliken charges:
               1
     1  O   -0.421340
     2  H    0.210670
     3  H    0.210670
 Sum of Mulliken charges =   0.00000

 Dipole moment (field-independent basis, Debye):
    X=              0.0000    Y=             -0.0000    Z=             -2.0167  Tot=              2.0167
 Quadrupole moment (field-independent basis, Debye-Ang):
   XX=             -7.5585   YY=             -4.2889   ZZ=             -6.3424
   XY=              0.0000   XZ=             -0.0000   YZ=              0.0000

  Exact polarizability:   5.974   0.000   8.128  -0.000   0.000   7.002
 Approx polarizability:   5.716   0.000   8.715  -0.000  -0.000   7.329

                      1                      2                      3
                     A1                     A1                     B2
 Frequencies --   1672.3672              3977.6207              4080.7156
 Red. masses --      1.0833                 1.0446                 1.0832
 Frc consts  --      1.7852                 9.7370                10.6276
 IR Inten    --     83.0907                11.9647                74.4965

 - Thermochemistry -
 -------------------
 Temperature   298.150 Kelvin.  Pressure   1.00000 Atm.
 Atom     1 has atomic number  8 and mass  15.99491

 Molecular mass:    18.01056 amu.
 Principal axes and moments of inertia in atomic units:
                           1         2         3
     Eigenvalues --     2.09068   4.12541   6.21609
           X            0.00000  -0.00000   1.00000
           Y            1.00000  -0.00000  -0.00000
           Z            0.00000   1.00000   0.00000
 This molecule is an asymmetric top.
 Rotational symmetry number  2.
 Rotational temperatures (Kelvin)     41.42856    20.99520    13.93381
 Rotational constants (GHZ):         863.23215   437.46953   290.33388
 Zero-point vibrational energy      58202.5 (Joules/Mol)
                                   13.91074 (Kcal/Mol)
 Vibrational temperatures:   2406.16  5722.90  5871.23
          (Kelvin)

 Zero-point correction=                           0.022168 (Hartree/Particle)
 Thermal correction to Energy=                    0.025003
 Thermal correction to Enthalpy=                  0.025947
 Thermal correction to Gibbs Free Energy=         0.004568
 Sum of electronic and zero-point Energies=            -76.402155
 Sum of electronic and thermal Energies=               -76.399320
 Sum of electronic and thermal Enthalpies=             -76.398376
 Sum of electronic and thermal Free Energies=          -76.419755

                     E (Thermal)             CV                S
                      KCal/Mol        Cal/Mol-Kelvin    Cal/Mol-Kelvin
 Total                   15.690              6.002             44.996
 Electronic               0.000              0.000              0.000
 Translational            0.889              2.981             34.608
 Rotational               0.889              2.981             10.382
 Vibrational             13.912              0.041              0.006

 Optimization completed.
    -- Stationary point found.
 Normal termination of Gaussian 09 at Fri Aug 27 00:01:56 2021.
