 Gaussian 09, Revision E.01,
 Gaussian 09:  EM64L-G09RevE.01 30-Nov-2015

 ----------------------
 #p opt freq PBEPBE/gen
 ----------------------

 -----------------------
 H2O_PBEPBE_PC2_OPT_FREQ
 -----------------------
 Symbolic Z-matrix:
 Charge =  0 Multiplicity = 1

 SCF Done:  E(RPBE-PBE) =  -76.3824585423     A.U. after   10 cycles
 SCF Done:  E(RPBE-PBE) =  -76.3830943710     A.U. after    9 cycles
 SCF Done:  E(RPBE-PBE) =  -76.3831233574     A.U. after    6 cycles
 Optimization completed.
    -- Stationary point found.
 Normal termination of Gaussian 09 at Thu Aug 26 23:58:13 2021.

 -------------------------------------------------------------------
 #P Geom=AllCheck Guess=TCheck SCRF=Check GenChk RPBEPBE/ChkBas Freq
 -------------------------------------------------------------------

 Structure from the checkpoint file:  "H2O_PBEPBE_PC2_OPT_FREQ.chk"
 -----------------------
 H2O_PBEPBE_PC2_OPT_FREQ
 -----------------------
 Charge =  0 Multiplicity = 1

                         Standard orientation:
 ---------------------------------------------------------------------
 Center     Atomic      Atomic             Coordinates (Angstroms)
 Number     Number       Type             X           Y           Z
 ---------------------------------------------------------------------
      1          8           0       -0.000000   -0.000000    0.118904
      2          1           0        0.000000   -0.764890   -0.475616
      3          1           0        0.000000    0.764890   -0.475616
 ---------------------------------------------------------------------

 SCF Done:  E(RPBE-PBE) =  -76.3831233574     A.U. after    1 cycles

 The electronic state is 1-A1.
 Alpha  occ. eigenvalues --  -18.74976  -0.92423  -0.47793  -0.33777  -0.26082
 Alpha virt. eigenvalues --   -0.01332   0.05085   0.24619   0.26393   0.30025
 Alpha virt. eigenvalues --    0.31267   0.41894   0.63475   0.72466   0.75680
 Alpha virt. eigenvalues --    0.82413   1.00268   1.12360   1.16802   1.37308

 Mulliken charges:
               1
     1  O   -0.423901
     2  H    0.211950
     3  H    0.211950
 Sum of Mulliken charges =   0.00000

 Dipole moment (field-independent basis, Debye):
    X=              0.0000    Y=             -0.0000    Z=             -1.9612  Tot=              1.9612
 Quadrupole moment (field-independent basis, Debye-Ang):
   XX=             -7.7068   YY=             -4.4645   ZZ=             -6.4290
   XY=              0.0000   XZ=             -0.0000   YZ=              0.0000

  Exact polarizability:   6.714   0.000   8.851   0.000  -0.000   7.835
 Approx polarizability:   8.054   0.000  12.773  -0.000   0.000  10.950

                      1                      2                      3
                     A1                     A1                     B2
 Frequencies --   1590.0803              3710.8392              3817.3299
 Red. masses --      1.0831                 1.0448                 1.0816
 Frc consts  --      1.6135                 8.4764                 9.2865
 IR Inten    --     66.2990                 2.7446                43.0272

 - Thermochemistry -
 -------------------
 Temperature   298.150 Kelvin.  Pressure   1.00000 Atm.
 Atom     1 has atomic number  8 and mass  15.99491

 Molecular mass:    18.01056 amu.
 Principal axes and moments of inertia in atomic units:
                           1         2         3
     Eigenvalues --     2.25943   4.21125   6.47068
           X            0.00000  -0.00000   1.00000
           Y            1.00000  -0.00000  -0.00000
           Z            0.00000   1.00000   0.00000
 This molecule is an asymmetric top.
 Rotational symmetry number  2.
 Rotational temperatures (Kelvin)     38.33429    20.56725    13.38557
 Rotational constants (GHZ):         798.75793   428.55237   278.91040
 Zero-point vibrational energy      54539.2 (Joules/Mol)
                                   13.03519 (Kcal/Mol)
 Vibrational temperatures:   2287.77  5339.06  5492.28
          (Kelvin)

 Zero-point correction=                           0.020773 (Hartree/Particle)
 Thermal correction to Energy=                    0.023609
 Thermal correction to Enthalpy=                  0.024553
 Thermal correction to Gibbs Free Energy=         0.003108
 Sum of electronic and zero-point Energies=            -76.362350
 Sum of electronic and thermal Energies=               -76.359515
 Sum of electronic and thermal Enthalpies=             -76.358570
 Sum of electronic and thermal Free Energies=          -76.380016

                     E (Thermal)             CV                S
                      KCal/Mol        Cal/Mol-Kelvin    Cal/Mol-Kelvin
 Total                   14.815              6.016             45.136
 Electronic               0.000              0.000              0.000
 Translational            0.889              2.981             34.608
 Rotational               0.889              2.981             10.519
 Vibrational             13.037              0.054              0.008

 Optimization completed.
    -- Stationary point found.
 Normal termination of Gaussian 09 at Thu Aug 26 23:58:25 2021.
