 Gaussian 09, Revision E.01,
 Gaussian 09:  EM64L-G09RevE.01 30-Nov-2015

 -------------------------
 #p opt freq CAM-B3LYP/gen
 -------------------------

 --------------------------
 H2O_CAM-B3LYP_PC2_OPT_FREQ
 --------------------------
 Symbolic Z-matrix:
 Charge =  0 Multiplicity = 1

 SCF Done:  E(RCAM-B3LYP) =  -76.4406160639     A.U. after   10 cycles
 SCF Done:  E(RCAM-B3LYP) =  -76.4409631309     A.U. after    9 cycles
 SCF Done:  E(RCAM-B3LYP) =  -76.4409697382     A.U. after    7 cycles
 Optimization completed.
    -- Stationary point found.
 Normal termination of Gaussian 09 at Fri Aug 27 00:02:19 2021.

 ----------------------------------------------------------------------
 #P Geom=AllCheck Guess=TCheck SCRF=Check GenChk RCAM-B3LYP/ChkBas Freq
 ----------------------------------------------------------------------

 Structure from the checkpoint file:  "H2O_CAM-B3LYP_PC2_OPT_FREQ.chk"
 --------------------------
 H2O_CAM-B3LYP_PC2_OPT_FREQ
 --------------------------
 Charge =  0 Multiplicity = 1

                         Standard orientation:
 ---------------------------------------------------------------------
 Center     Atomic      Atomic             Coordinates (Angstroms)
 Number     Number       Type             X           Y           Z
 ---------------------------------------------------------------------
      1          8           0       -0.000000   -0.000000    0.115881
      2          1           0        0.000000   -0.763732   -0.463526
      3          1           0        0.000000    0.763732   -0.463526
 ---------------------------------------------------------------------

 SCF Done:  E(RCAM-B3LYP) =  -76.4409697382     A.U. after    1 cycles

 The electronic state is 1-A1.
 Alpha  occ. eigenvalues --  -19.20194  -1.09704  -0.60819  -0.46238  -0.38986
 Alpha virt. eigenvalues --    0.04243   0.09773   0.32825   0.33088   0.38546
 Alpha virt. eigenvalues --    0.38753   0.49638   0.73392   0.82200   0.85251
 Alpha virt. eigenvalues --    0.93051   1.09770   1.22578   1.27115   1.49851

 Mulliken charges:
               1
     1  O   -0.416928
     2  H    0.208464
     3  H    0.208464
 Sum of Mulliken charges =  -0.00000

 Dipole moment (field-independent basis, Debye):
    X=              0.0000    Y=              0.0000    Z=             -2.0178  Tot=              2.0178
 Quadrupole moment (field-independent basis, Debye-Ang):
   XX=             -7.6766   YY=             -4.3753   ZZ=             -6.4397
   XY=              0.0000   XZ=             -0.0000   YZ=              0.0000

  Exact polarizability:   6.317   0.000   8.470   0.000   0.000   7.365
 Approx polarizability:   5.915   0.000   9.132  -0.000   0.000   7.675

                      1                      2                      3
                     A1                     A1                     B2
 Frequencies --   1617.8462              3852.7742              3955.7409
 Red. masses --      1.0835                 1.0444                 1.0830
 Frc consts  --      1.6709                 9.1341                 9.9845
 IR Inten    --     78.6255                 9.0261                67.4923

 - Thermochemistry -
 -------------------
 Temperature   298.150 Kelvin.  Pressure   1.00000 Atm.
 Atom     1 has atomic number  8 and mass  15.99491

 Molecular mass:    18.01056 amu.
 Principal axes and moments of inertia in atomic units:
                           1         2         3
     Eigenvalues --     2.14603   4.19851   6.34453
           X            0.00000   0.00000   1.00000
           Y            1.00000   0.00000  -0.00000
           Z           -0.00000   1.00000  -0.00000
 This molecule is an asymmetric top.
 Rotational symmetry number  2.
 Rotational temperatures (Kelvin)     40.36008    20.62967    13.65172
 Rotational constants (GHZ):         840.96856   429.85303   284.45605
 Zero-point vibrational energy      56382.2 (Joules/Mol)
                                   13.47566 (Kcal/Mol)
 Vibrational temperatures:   2327.72  5543.28  5691.42
          (Kelvin)

 Zero-point correction=                           0.021475 (Hartree/Particle)
 Thermal correction to Energy=                    0.024310
 Thermal correction to Enthalpy=                  0.025255
 Thermal correction to Gibbs Free Energy=         0.003845
 Sum of electronic and zero-point Energies=            -76.419495
 Sum of electronic and thermal Energies=               -76.416659
 Sum of electronic and thermal Enthalpies=             -76.415715
 Sum of electronic and thermal Free Energies=          -76.437125

                     E (Thermal)             CV                S
                      KCal/Mol        Cal/Mol-Kelvin    Cal/Mol-Kelvin
 Total                   15.255              6.011             45.061
 Electronic               0.000              0.000              0.000
 Translational            0.889              2.981             34.608
 Rotational               0.889              2.981             10.446
 Vibrational             13.478              0.049              0.007

 Optimization completed.
    -- Stationary point found.
 Normal termination of Gaussian 09 at Fri Aug 27 00:02:31 2021.
