 Gaussian 09, Revision E.01,
 Gaussian 09:  EM64L-G09RevE.01 30-Nov-2015

 ----------------------------------------------------------
 #p opt freq TPSSh/gen SCF(novaracc,noincfock) int=acc2e=12
 ----------------------------------------------------------

 ----------------------
 H2O_TPSSh_PC2_OPT_FREQ
 ----------------------
 Symbolic Z-matrix:
 Charge =  0 Multiplicity = 1

 SCF Done:  E(RTPSSh) =  -76.4597756984     A.U. after    8 cycles
 SCF Done:  E(RTPSSh) =  -76.4603050881     A.U. after    7 cycles
 SCF Done:  E(RTPSSh) =  -76.4603179153     A.U. after    6 cycles
 Optimization completed.
    -- Stationary point found.
 Normal termination of Gaussian 09 at Thu Sep  2 22:19:30 2021.

 ------------------------------------------------------------------
 #P Geom=AllCheck Guess=TCheck SCRF=Check GenChk RTPSSh/ChkBas Freq
 ------------------------------------------------------------------

 Structure from the checkpoint file:  "H2O_TPSSh_PC2_OPT_FREQ.chk"
 ----------------------
 H2O_TPSSh_PC2_OPT_FREQ
 ----------------------
 Charge =  0 Multiplicity = 1

                         Standard orientation:
 ---------------------------------------------------------------------
 Center     Atomic      Atomic             Coordinates (Angstroms)
 Number     Number       Type             X           Y           Z
 ---------------------------------------------------------------------
      1          8           0        0.000000    0.000000    0.117663
      2          1           0        0.000000   -0.761874   -0.470652
      3          1           0        0.000000    0.761874   -0.470652
 ---------------------------------------------------------------------

 SCF Done:  E(RTPSSh) =  -76.4603179153     A.U. after    1 cycles

 The electronic state is 1-A1.
 Alpha  occ. eigenvalues --  -19.05373  -0.99116  -0.51201  -0.36981  -0.29265
 Alpha virt. eigenvalues --    0.00726   0.06783   0.27354   0.28759   0.33109
 Alpha virt. eigenvalues --    0.34089   0.44972   0.67013   0.76029   0.79054
 Alpha virt. eigenvalues --    0.86217   1.04148   1.16877   1.21772   1.42826

 Mulliken charges:
               1
     1  O   -0.435657
     2  H    0.217828
     3  H    0.217828
 Sum of Mulliken charges =   0.00000

 Dipole moment (field-independent basis, Debye):
    X=              0.0000    Y=             -0.0000    Z=             -1.9670  Tot=              1.9670
 Quadrupole moment (field-independent basis, Debye-Ang):
   XX=             -7.6069   YY=             -4.3788   ZZ=             -6.3547
   XY=              0.0000   XZ=             -0.0000   YZ=              0.0000

  Exact polarizability:   6.431   0.000   8.678  -0.000   0.000   7.570
 Approx polarizability:   7.137   0.000  11.273  -0.000   0.000   9.586

                      1                      2                      3
                     A1                     A1                     B2
 Frequencies --   1639.2415              3783.3781              3887.4070
 Red. masses --      1.0832                 1.0447                 1.0820
 Frc consts  --      1.7149                 8.8105                 9.6338
 IR Inten    --     68.2500                 3.6897                44.5193

 - Thermochemistry -
 -------------------
 Temperature   298.150 Kelvin.  Pressure   1.00000 Atm.
 Atom     1 has atomic number  8 and mass  15.99491

 Molecular mass:    18.01056 amu.
 Principal axes and moments of inertia in atomic units:
                           1         2         3
     Eigenvalues --     2.21252   4.17810   6.39063
           X            0.00000  -0.00000   1.00000
           Y            1.00000  -0.00000  -0.00000
           Z            0.00000   1.00000   0.00000
 This molecule is an asymmetric top.
 Rotational symmetry number  2.
 Rotational temperatures (Kelvin)     39.14708    20.73041    13.55326
 Rotational constants (GHZ):         815.69384   431.95216   282.40440
 Zero-point vibrational energy      55686.3 (Joules/Mol)
                                   13.30935 (Kcal/Mol)
 Vibrational temperatures:   2358.50  5443.43  5593.10
          (Kelvin)

 Zero-point correction=                           0.021210 (Hartree/Particle)
 Thermal correction to Energy=                    0.024045
 Thermal correction to Enthalpy=                  0.024989
 Thermal correction to Gibbs Free Energy=         0.003564
 Sum of electronic and zero-point Energies=            -76.439108
 Sum of electronic and thermal Energies=               -76.436273
 Sum of electronic and thermal Enthalpies=             -76.435329
 Sum of electronic and thermal Free Energies=          -76.456754

                     E (Thermal)             CV                S
                      KCal/Mol        Cal/Mol-Kelvin    Cal/Mol-Kelvin
 Total                   15.089              6.007             45.093
 Electronic               0.000              0.000              0.000
 Translational            0.889              2.981             34.608
 Rotational               0.889              2.981             10.478
 Vibrational             13.311              0.046              0.006

 Optimization completed.
    -- Stationary point found.
 Normal termination of Gaussian 09 at Thu Sep  2 22:19:35 2021.
