 Gaussian 09, Revision E.01,
 Gaussian 09:  EM64L-G09RevE.01 30-Nov-2015

 --------------------
 #p opt freq M06L/gen
 --------------------

 ---------------------
 H2O_M06L_PC2_OPT_FREQ
 ---------------------
 Symbolic Z-matrix:
 Charge =  0 Multiplicity = 1

 SCF Done:  E(RM06L) =  -76.4461682570     A.U. after   11 cycles
 SCF Done:  E(RM06L) =  -76.4469492518     A.U. after   10 cycles
 SCF Done:  E(RM06L) =  -76.4469609214     A.U. after    7 cycles
 Optimization completed.
    -- Stationary point found.
 Normal termination of Gaussian 09 at Fri Aug 27 00:00:28 2021.

 -----------------------------------------------------------------
 #P Geom=AllCheck Guess=TCheck SCRF=Check GenChk RM06L/ChkBas Freq
 -----------------------------------------------------------------

 Structure from the checkpoint file:  "H2O_M06L_PC2_OPT_FREQ.chk"
 ---------------------
 H2O_M06L_PC2_OPT_FREQ
 ---------------------
 Charge =  0 Multiplicity = 1

                         Standard orientation:
 ---------------------------------------------------------------------
 Center     Atomic      Atomic             Coordinates (Angstroms)
 Number     Number       Type             X           Y           Z
 ---------------------------------------------------------------------
      1          8           0        0.000000   -0.000000    0.117523
      2          1           0        0.000000   -0.753378   -0.470092
      3          1           0        0.000000    0.753378   -0.470092
 ---------------------------------------------------------------------

 SCF Done:  E(RM06L) =  -76.4469609214     A.U. after    1 cycles

 The electronic state is 1-A1.
 Alpha  occ. eigenvalues --  -18.96144  -0.98616  -0.49170  -0.35071  -0.27070
 Alpha virt. eigenvalues --    0.02956   0.07602   0.26917   0.28866   0.34861
 Alpha virt. eigenvalues --    0.36364   0.45856   0.65919   0.75464   0.77125
 Alpha virt. eigenvalues --    0.85385   1.03997   1.17014   1.22881   1.42927

 Mulliken charges:
               1
     1  O   -0.452667
     2  H    0.226333
     3  H    0.226333
 Sum of Mulliken charges =   0.00000

 Dipole moment (field-independent basis, Debye):
    X=              0.0000    Y=              0.0000    Z=             -1.9277  Tot=              1.9277
 Quadrupole moment (field-independent basis, Debye-Ang):
   XX=             -7.4758   YY=             -4.3354   ZZ=             -6.2295
   XY=              0.0000   XZ=             -0.0000   YZ=             -0.0000

  Exact polarizability:   6.341   0.000   8.503  -0.000   0.000   7.436
 Approx polarizability:   7.138   0.000  11.303  -0.000  -0.000   9.631

                      1                      2                      3
                     A1                     A1                     B2
 Frequencies --   1675.3752              3854.4742              3974.0912
 Red. masses --      1.0824                 1.0454                 1.0815
 Frc consts  --      1.7900                 9.1512                10.0631
 IR Inten    --     63.6842                 3.8474                44.4793

 - Thermochemistry -
 -------------------
 Temperature   298.150 Kelvin.  Pressure   1.00000 Atm.
 Atom     1 has atomic number  8 and mass  15.99491

 Molecular mass:    18.01056 amu.
 Principal axes and moments of inertia in atomic units:
                           1         2         3
     Eigenvalues --     2.20726   4.08544   6.29271
           X            0.00000   0.00000   1.00000
           Y            1.00000   0.00000  -0.00000
           Z           -0.00000   1.00000  -0.00000
 This molecule is an asymmetric top.
 Rotational symmetry number  2.
 Rotational temperatures (Kelvin)     39.24037    21.20059    13.76416
 Rotational constants (GHZ):         817.63754   441.74923   286.79891
 Zero-point vibrational energy      56846.2 (Joules/Mol)
                                   13.58657 (Kcal/Mol)
 Vibrational temperatures:   2410.49  5545.72  5717.82
          (Kelvin)

 Zero-point correction=                           0.021652 (Hartree/Particle)
 Thermal correction to Energy=                    0.024486
 Thermal correction to Enthalpy=                  0.025431
 Thermal correction to Gibbs Free Energy=         0.004025
 Sum of electronic and zero-point Energies=            -76.425309
 Sum of electronic and thermal Energies=               -76.422474
 Sum of electronic and thermal Enthalpies=             -76.421530
 Sum of electronic and thermal Free Energies=          -76.442936

                     E (Thermal)             CV                S
                      KCal/Mol        Cal/Mol-Kelvin    Cal/Mol-Kelvin
 Total                   15.365              6.002             45.052
 Electronic               0.000              0.000              0.000
 Translational            0.889              2.981             34.608
 Rotational               0.889              2.981             10.438
 Vibrational             13.588              0.040              0.006

 Optimization completed.
    -- Stationary point found.
 Normal termination of Gaussian 09 at Fri Aug 27 00:00:39 2021.
