 Gaussian 09, Revision E.01,
 Gaussian 09:  EM64L-G09RevE.01 30-Nov-2015

 --------------------
 #p opt freq BLYP/gen
 --------------------

 ---------------------
 H2O_BLYP_PC2_OPT_FREQ
 ---------------------
 Symbolic Z-matrix:
 Charge =  0 Multiplicity = 1

 SCF Done:  E(RB-LYP) =  -76.4516392723     A.U. after   10 cycles
 SCF Done:  E(RB-LYP) =  -76.4522614061     A.U. after    9 cycles
 SCF Done:  E(RB-LYP) =  -76.4522909615     A.U. after    6 cycles
 Optimization completed.
    -- Stationary point found.
 Normal termination of Gaussian 09 at Thu Aug 26 23:59:20 2021.

 -----------------------------------------------------------------
 #P Geom=AllCheck Guess=TCheck SCRF=Check GenChk RBLYP/ChkBas Freq
 -----------------------------------------------------------------

 Structure from the checkpoint file:  "H2O_BLYP_PC2_OPT_FREQ.chk"
 ---------------------
 H2O_BLYP_PC2_OPT_FREQ
 ---------------------
 Charge =  0 Multiplicity = 1

                         Standard orientation:
 ---------------------------------------------------------------------
 Center     Atomic      Atomic             Coordinates (Angstroms)
 Number     Number       Type             X           Y           Z
 ---------------------------------------------------------------------
      1          8           0       -0.000000   -0.000000    0.118733
      2          1           0        0.000000   -0.767733   -0.474933
      3          1           0        0.000000    0.767733   -0.474933
 ---------------------------------------------------------------------

 SCF Done:  E(RB-LYP) =  -76.4522909615     A.U. after    1 cycles

 The electronic state is 1-A1.
 Alpha  occ. eigenvalues --  -18.77683  -0.91777  -0.47519  -0.33448  -0.25898
 Alpha virt. eigenvalues --   -0.01886   0.04479   0.24296   0.25896   0.29518
 Alpha virt. eigenvalues --    0.30701   0.41245   0.63612   0.72512   0.75478
 Alpha virt. eigenvalues --    0.82602   1.00048   1.11948   1.16336   1.37074

 Mulliken charges:
               1
     1  O   -0.405125
     2  H    0.202562
     3  H    0.202562
 Sum of Mulliken charges =   0.00000

 Dipole moment (field-independent basis, Debye):
    X=              0.0000    Y=             -0.0000    Z=             -1.9599  Tot=              1.9599
 Quadrupole moment (field-independent basis, Debye-Ang):
   XX=             -7.7489   YY=             -4.5033   ZZ=             -6.4868
   XY=              0.0000   XZ=             -0.0000   YZ=              0.0000

  Exact polarizability:   6.766   0.000   8.971   0.000   0.000   7.906
 Approx polarizability:   8.230   0.000  13.079  -0.000  -0.000  11.193

                      1                      2                      3
                     A1                     A1                     B2
 Frequencies --   1594.1908              3669.9211              3773.3750
 Red. masses --      1.0835                 1.0444                 1.0819
 Frc consts  --      1.6224                 8.2876                 9.0763
 IR Inten    --     66.5485                 2.1453                39.7223

 - Thermochemistry -
 -------------------
 Temperature   298.150 Kelvin.  Pressure   1.00000 Atm.
 Atom     1 has atomic number  8 and mass  15.99491

 Molecular mass:    18.01056 amu.
 Principal axes and moments of inertia in atomic units:
                           1         2         3
     Eigenvalues --     2.25295   4.24261   6.49557
           X            0.00000  -0.00000   1.00000
           Y            1.00000   0.00000  -0.00000
           Z           -0.00000   1.00000   0.00000
 This molecule is an asymmetric top.
 Rotational symmetry number  2.
 Rotational temperatures (Kelvin)     38.44457    20.41520    13.33430
 Rotational constants (GHZ):         801.05583   425.38429   277.84199
 Zero-point vibrational energy      54056.2 (Joules/Mol)
                                   12.91974 (Kcal/Mol)
 Vibrational temperatures:   2293.68  5280.19  5429.04
          (Kelvin)

 Zero-point correction=                           0.020589 (Hartree/Particle)
 Thermal correction to Energy=                    0.023425
 Thermal correction to Enthalpy=                  0.024369
 Thermal correction to Gibbs Free Energy=         0.002920
 Sum of electronic and zero-point Energies=            -76.431702
 Sum of electronic and thermal Energies=               -76.428866
 Sum of electronic and thermal Enthalpies=             -76.427922
 Sum of electronic and thermal Free Energies=          -76.449371

                     E (Thermal)             CV                S
                      KCal/Mol        Cal/Mol-Kelvin    Cal/Mol-Kelvin
 Total                   14.699              6.015             45.144
 Electronic               0.000              0.000              0.000
 Translational            0.889              2.981             34.608
 Rotational               0.889              2.981             10.528
 Vibrational             12.922              0.054              0.008

 Optimization completed.
    -- Stationary point found.
 Normal termination of Gaussian 09 at Thu Aug 26 23:59:31 2021.
