 Gaussian 09, Revision E.01,
 Gaussian 09:  EM64L-G09RevE.01 30-Nov-2015

 --------------------
 #p opt freq SVWN/gen
 --------------------

 ---------------------
 H2O_SVWN_PC2_OPT_FREQ
 ---------------------
 Symbolic Z-matrix:
 Charge =  0 Multiplicity = 1

 SCF Done:  E(RS-VWN) =  -76.1012848569     A.U. after   10 cycles
 SCF Done:  E(RS-VWN) =  -76.1017228420     A.U. after    9 cycles
 SCF Done:  E(RS-VWN) =  -76.1017482560     A.U. after    6 cycles
 Optimization completed.
    -- Stationary point found.
 Normal termination of Gaussian 09 at Thu Aug 26 23:57:34 2021.

 -----------------------------------------------------------------
 #P Geom=AllCheck Guess=TCheck SCRF=Check GenChk RSVWN/ChkBas Freq
 -----------------------------------------------------------------

 Structure from the checkpoint file:  "H2O_SVWN_PC2_OPT_FREQ.chk"
 ---------------------
 H2O_SVWN_PC2_OPT_FREQ
 ---------------------
 Charge =  0 Multiplicity = 1

                         Standard orientation:
 ---------------------------------------------------------------------
 Center     Atomic      Atomic             Coordinates (Angstroms)
 Number     Number       Type             X           Y           Z
 ---------------------------------------------------------------------
      1          8           0        0.000000   -0.000000    0.117702
      2          1           0       -0.000000   -0.768827   -0.470809
      3          1           0        0.000000    0.768827   -0.470809
 ---------------------------------------------------------------------

 SCF Done:  E(RS-VWN) =  -76.1017482560     A.U. after    1 cycles

 The electronic state is 1-A1.
 Alpha  occ. eigenvalues --  -18.60979  -0.93666  -0.50067  -0.35726  -0.28451
 Alpha virt. eigenvalues --   -0.02913   0.03837   0.22994   0.24570   0.28013
 Alpha virt. eigenvalues --    0.28991   0.39840   0.60854   0.69249   0.73576
 Alpha virt. eigenvalues --    0.79892   0.98129   1.09963   1.15062   1.34771

 Mulliken charges:
               1
     1  O   -0.438743
     2  H    0.219371
     3  H    0.219371
 Sum of Mulliken charges =  -0.00000

 Dipole moment (field-independent basis, Debye):
    X=              0.0000    Y=             -0.0000    Z=             -2.0201  Tot=              2.0201
 Quadrupole moment (field-independent basis, Debye-Ang):
   XX=             -7.7641   YY=             -4.4178   ZZ=             -6.4881
   XY=              0.0000   XZ=             -0.0000   YZ=              0.0000

  Exact polarizability:   6.658   0.000   8.818  -0.000   0.000   7.767
 Approx polarizability:   8.021   0.000  12.729  -0.000   0.000  10.804

                      1                      2                      3
                     A1                     A1                     B2
 Frequencies --   1547.3203              3746.0230              3858.0587
 Red. masses --      1.0835                 1.0444                 1.0825
 Frc consts  --      1.5284                 8.6348                 9.4932
 IR Inten    --     74.0238                 7.7764                68.5712

 - Thermochemistry -
 -------------------
 Temperature   298.150 Kelvin.  Pressure   1.00000 Atm.
 Atom     1 has atomic number  8 and mass  15.99491

 Molecular mass:    18.01056 amu.
 Principal axes and moments of inertia in atomic units:
                           1         2         3
     Eigenvalues --     2.21400   4.25472   6.46872
           X            0.00000  -0.00000   1.00000
           Y            1.00000  -0.00000   0.00000
           Z            0.00000   1.00000   0.00000
 This molecule is an asymmetric top.
 Rotational symmetry number  2.
 Rotational temperatures (Kelvin)     39.12096    20.35713    13.38964
 Rotational constants (GHZ):         815.14959   424.17422   278.99524
 Zero-point vibrational energy      54737.5 (Joules/Mol)
                                   13.08259 (Kcal/Mol)
 Vibrational temperatures:   2226.25  5389.68  5550.88
          (Kelvin)

 Zero-point correction=                           0.020848 (Hartree/Particle)
 Thermal correction to Energy=                    0.023685
 Thermal correction to Enthalpy=                  0.024629
 Thermal correction to Gibbs Free Energy=         0.003188
 Sum of electronic and zero-point Energies=            -76.080900
 Sum of electronic and thermal Energies=               -76.078063
 Sum of electronic and thermal Enthalpies=             -76.077119
 Sum of electronic and thermal Free Energies=          -76.098560

                     E (Thermal)             CV                S
                      KCal/Mol        Cal/Mol-Kelvin    Cal/Mol-Kelvin
 Total                   14.863              6.025             45.127
 Electronic               0.000              0.000              0.000
 Translational            0.889              2.981             34.608
 Rotational               0.889              2.981             10.509
 Vibrational             13.085              0.063              0.010

 Optimization completed.
    -- Stationary point found.
 Normal termination of Gaussian 09 at Thu Aug 26 23:57:51 2021.
