 Gaussian 09, Revision E.01,
 Gaussian 09:  EM64L-G09RevE.01 30-Nov-2015

 ---------------------
 #p opt freq M062X/gen
 ---------------------

 ----------------------
 H2O_M062X_PC2_OPT_FREQ
 ----------------------
 Symbolic Z-matrix:
 Charge =  0 Multiplicity = 1

 SCF Done:  E(RM062X) =  -76.4306479974     A.U. after   11 cycles
 SCF Done:  E(RM062X) =  -76.4310611926     A.U. after   10 cycles
 SCF Done:  E(RM062X) =  -76.4310687880     A.U. after    7 cycles
 Optimization completed.
    -- Stationary point found.
 Normal termination of Gaussian 09 at Fri Aug 27 00:04:39 2021.

 ------------------------------------------------------------------
 #P Geom=AllCheck Guess=TCheck SCRF=Check GenChk RM062X/ChkBas Freq
 ------------------------------------------------------------------

 Structure from the checkpoint file:  "H2O_M062X_PC2_OPT_FREQ.chk"
 ----------------------
 H2O_M062X_PC2_OPT_FREQ
 ----------------------
 Charge =  0 Multiplicity = 1

                         Standard orientation:
 ---------------------------------------------------------------------
 Center     Atomic      Atomic             Coordinates (Angstroms)
 Number     Number       Type             X           Y           Z
 ---------------------------------------------------------------------
      1          8           0       -0.000000   -0.000000    0.116237
      2          1           0        0.000000   -0.761482   -0.464950
      3          1           0        0.000000    0.761482   -0.464950
 ---------------------------------------------------------------------

 SCF Done:  E(RM062X) =  -76.4310687880     A.U. after    1 cycles

 The electronic state is 1-A1.
 Alpha  occ. eigenvalues --  -19.62386  -1.13545  -0.61084  -0.47322  -0.40099
 Alpha virt. eigenvalues --    0.03967   0.08470   0.32383   0.32700   0.38544
 Alpha virt. eigenvalues --    0.38921   0.49299   0.72265   0.80979   0.84511
 Alpha virt. eigenvalues --    0.91678   1.08396   1.21389   1.26117   1.48856

 Mulliken charges:
               1
     1  O   -0.411821
     2  H    0.205911
     3  H    0.205911
 Sum of Mulliken charges =   0.00000

 Dipole moment (field-independent basis, Debye):
    X=              0.0000    Y=             -0.0000    Z=             -2.0098  Tot=              2.0098
 Quadrupole moment (field-independent basis, Debye-Ang):
   XX=             -7.6075   YY=             -4.3335   ZZ=             -6.3600
   XY=              0.0000   XZ=             -0.0000   YZ=              0.0000

  Exact polarizability:   6.197  -0.000   8.429  -0.000   0.000   7.274
 Approx polarizability:   5.800   0.000   8.972  -0.000   0.000   7.536

                      1                      2                      3
                     A1                     A1                     B2
 Frequencies --   1613.4512              3883.4114              3988.3111
 Red. masses --      1.0826                 1.0452                 1.0826
 Frc consts  --      1.6605                 9.2870                10.1465
 IR Inten    --     77.2320                12.4270                75.7939

 - Thermochemistry -
 -------------------
 Temperature   298.150 Kelvin.  Pressure   1.00000 Atm.
 Atom     1 has atomic number  8 and mass  15.99491

 Molecular mass:    18.01056 amu.
 Principal axes and moments of inertia in atomic units:
                           1         2         3
     Eigenvalues --     2.15923   4.17380   6.33304
           X            0.00000  -0.00000   1.00000
           Y            1.00000  -0.00000  -0.00000
           Z            0.00000   1.00000   0.00000
 This molecule is an asymmetric top.
 Rotational symmetry number  2.
 Rotational temperatures (Kelvin)     40.11324    20.75177    13.67651
 Rotational constants (GHZ):         835.82521   432.39727   284.97251
 Zero-point vibrational energy      56733.9 (Joules/Mol)
                                   13.55974 (Kcal/Mol)
 Vibrational temperatures:   2321.39  5587.36  5738.28
          (Kelvin)

 Zero-point correction=                           0.021609 (Hartree/Particle)
 Thermal correction to Energy=                    0.024444
 Thermal correction to Enthalpy=                  0.025389
 Thermal correction to Gibbs Free Energy=         0.003979
 Sum of electronic and zero-point Energies=            -76.409460
 Sum of electronic and thermal Energies=               -76.406624
 Sum of electronic and thermal Enthalpies=             -76.405680
 Sum of electronic and thermal Free Energies=          -76.427089

                     E (Thermal)             CV                S
                      KCal/Mol        Cal/Mol-Kelvin    Cal/Mol-Kelvin
 Total                   15.339              6.012             45.060
 Electronic               0.000              0.000              0.000
 Translational            0.889              2.981             34.608
 Rotational               0.889              2.981             10.444
 Vibrational             13.562              0.050              0.007

 Optimization completed.
    -- Stationary point found.
 Normal termination of Gaussian 09 at Fri Aug 27 00:04:51 2021.
