 Gaussian 09, Revision E.01,
 Gaussian 09:  EM64L-G09RevE.01 30-Nov-2015

 --------------------
 #p opt freq BP86/gen
 --------------------

 ---------------------
 H2O_BP86_PC2_OPT_FREQ
 ---------------------
 Symbolic Z-matrix:
 Charge =  0 Multiplicity = 1

 SCF Done:  E(RB-P86) =  -76.4685054280     A.U. after    9 cycles
 SCF Done:  E(RB-P86) =  -76.4691646247     A.U. after    9 cycles
 SCF Done:  E(RB-P86) =  -76.4691958138     A.U. after    6 cycles
 Optimization completed.
    -- Stationary point found.
 Normal termination of Gaussian 09 at Thu Aug 26 23:58:46 2021.

 -----------------------------------------------------------------
 #P Geom=AllCheck Guess=TCheck SCRF=Check GenChk RBP86/ChkBas Freq
 -----------------------------------------------------------------

 Structure from the checkpoint file:  "H2O_BP86_PC2_OPT_FREQ.chk"
 ---------------------
 H2O_BP86_PC2_OPT_FREQ
 ---------------------
 Charge =  0 Multiplicity = 1

                         Standard orientation:
 ---------------------------------------------------------------------
 Center     Atomic      Atomic             Coordinates (Angstroms)
 Number     Number       Type             X           Y           Z
 ---------------------------------------------------------------------
      1          8           0        0.000000   -0.000000    0.119024
      2          1           0        0.000000   -0.765626   -0.476097
      3          1           0        0.000000    0.765626   -0.476097
 ---------------------------------------------------------------------

 SCF Done:  E(RB-P86) =  -76.4691958138     A.U. after    1 cycles

 The electronic state is 1-A1.
 Alpha  occ. eigenvalues --  -18.77278  -0.92805  -0.48170  -0.34220  -0.26553
 Alpha virt. eigenvalues --   -0.01003   0.05424   0.24588   0.26412   0.30036
 Alpha virt. eigenvalues --    0.31191   0.41765   0.62848   0.71694   0.75326
 Alpha virt. eigenvalues --    0.81712   1.00093   1.11748   1.16526   1.36538

 Mulliken charges:
               1
     1  O   -0.423632
     2  H    0.211816
     3  H    0.211816
 Sum of Mulliken charges =  -0.00000

 Dipole moment (field-independent basis, Debye):
    X=              0.0000    Y=              0.0000    Z=             -1.9604  Tot=              1.9604
 Quadrupole moment (field-independent basis, Debye-Ang):
   XX=             -7.6995   YY=             -4.4564   ZZ=             -6.4224
   XY=              0.0000   XZ=             -0.0000   YZ=              0.0000

  Exact polarizability:   6.708  -0.000   8.920  -0.000   0.000   7.871
 Approx polarizability:   7.968   0.000  12.745  -0.000   0.000  10.889

                      1                      2                      3
                     A1                     A1                     B2
 Frequencies --   1590.3644              3696.4931              3802.8302
 Red. masses --      1.0831                 1.0447                 1.0816
 Frc consts  --      1.6141                 8.4108                 9.2161
 IR Inten    --     64.3830                 2.6796                41.8018

 - Thermochemistry -
 -------------------
 Temperature   298.150 Kelvin.  Pressure   1.00000 Atm.
 Atom     1 has atomic number  8 and mass  15.99491

 Molecular mass:    18.01056 amu.
 Principal axes and moments of inertia in atomic units:
                           1         2         3
     Eigenvalues --     2.26401   4.21936   6.48337
           X            0.00000   0.00000   1.00000
           Y            1.00000   0.00000  -0.00000
           Z           -0.00000   1.00000  -0.00000
 This molecule is an asymmetric top.
 Rotational symmetry number  2.
 Rotational temperatures (Kelvin)     38.25676    20.52772    13.35938
 Rotational constants (GHZ):         797.14251   427.72875   278.36458
 Zero-point vibrational energy      54368.4 (Joules/Mol)
                                   12.99436 (Kcal/Mol)
 Vibrational temperatures:   2288.18  5318.42  5471.42
          (Kelvin)

 Zero-point correction=                           0.020708 (Hartree/Particle)
 Thermal correction to Energy=                    0.023544
 Thermal correction to Enthalpy=                  0.024488
 Thermal correction to Gibbs Free Energy=         0.003040
 Sum of electronic and zero-point Energies=            -76.448488
 Sum of electronic and thermal Energies=               -76.445652
 Sum of electronic and thermal Enthalpies=             -76.444708
 Sum of electronic and thermal Free Energies=          -76.466156

                     E (Thermal)             CV                S
                      KCal/Mol        Cal/Mol-Kelvin    Cal/Mol-Kelvin
 Total                   14.774              6.016             45.141
 Electronic               0.000              0.000              0.000
 Translational            0.889              2.981             34.608
 Rotational               0.889              2.981             10.525
 Vibrational             12.996              0.054              0.008

 Optimization completed.
    -- Stationary point found.
 Normal termination of Gaussian 09 at Thu Aug 26 23:58:58 2021.
