 Gaussian 09, Revision E.01,
 Gaussian 09:  EM64L-G09RevE.01 30-Nov-2015

 ---------------------
 #p opt freq B3LYP/gen
 ---------------------

 ----------------------
 H2O_B3LYP_PC2_OPT_FREQ
 ----------------------
 Symbolic Z-matrix:
 Charge =  0 Multiplicity = 1

 SCF Done:  E(RB3LYP) =  -76.4685675492     A.U. after    9 cycles
 SCF Done:  E(RB3LYP) =  -76.4689820970     A.U. after    7 cycles
 SCF Done:  E(RB3LYP) =  -76.4689910777     A.U. after    6 cycles
 Optimization completed.
    -- Stationary point found.
 Normal termination of Gaussian 09 at Fri Aug 27 00:01:01 2021.

 ------------------------------------------------------------------
 #P Geom=AllCheck Guess=TCheck SCRF=Check GenChk RB3LYP/ChkBas Freq
 ------------------------------------------------------------------

 Structure from the checkpoint file:  "H2O_B3LYP_PC2_OPT_FREQ.chk"
 ----------------------
 H2O_B3LYP_PC2_OPT_FREQ
 ----------------------
 Charge =  0 Multiplicity = 1

                         Standard orientation:
 ---------------------------------------------------------------------
 Center     Atomic      Atomic             Coordinates (Angstroms)
 Number     Number       Type             X           Y           Z
 ---------------------------------------------------------------------
      1          8           0       -0.000000   -0.000000    0.116641
      2          1           0        0.000000   -0.762808   -0.466565
      3          1           0        0.000000    0.762808   -0.466565
 ---------------------------------------------------------------------

 SCF Done:  E(RB3LYP) =  -76.4689910777     A.U. after    1 cycles

 The electronic state is 1-A1.
 Alpha  occ. eigenvalues --  -19.13038  -1.01831  -0.53900  -0.39497  -0.32087
 Alpha virt. eigenvalues --    0.00238   0.06367   0.27524   0.28394   0.32995
 Alpha virt. eigenvalues --    0.33435   0.44546   0.67299   0.76066   0.79332
 Alpha virt. eigenvalues --    0.86631   1.03790   1.16306   1.20854   1.42976

 Mulliken charges:
               1
     1  O   -0.413240
     2  H    0.206620
     3  H    0.206620
 Sum of Mulliken charges =   0.00000

 Dipole moment (field-independent basis, Debye):
    X=              0.0000    Y=             -0.0000    Z=             -1.9890  Tot=              1.9890
 Quadrupole moment (field-independent basis, Debye-Ang):
   XX=             -7.6558   YY=             -4.3967   ZZ=             -6.4164
   XY=              0.0000   XZ=             -0.0000   YZ=              0.0000

  Exact polarizability:   6.385   0.000   8.569   0.000   0.000   7.475
 Approx polarizability:   6.922   0.000  10.848  -0.000   0.000   9.170

                      1                      2                      3
                     A1                     A1                     B2
 Frequencies --   1624.5190              3813.7011              3917.5176
 Red. masses --      1.0834                 1.0445                 1.0826
 Frc consts  --      1.6846                 8.9503                 9.7886
 IR Inten    --     73.8130                 5.9069                55.3574

 - Thermochemistry -
 -------------------
 Temperature   298.150 Kelvin.  Pressure   1.00000 Atm.
 Atom     1 has atomic number  8 and mass  15.99491

 Molecular mass:    18.01056 amu.
 Principal axes and moments of inertia in atomic units:
                           1         2         3
     Eigenvalues --     2.17426   4.18835   6.36261
           X            0.00000  -0.00000   1.00000
           Y            1.00000  -0.00000  -0.00000
           Z            0.00000   1.00000   0.00000
 This molecule is an asymmetric top.
 Rotational symmetry number  2.
 Rotational temperatures (Kelvin)     39.83597    20.67970    13.61294
 Rotational constants (GHZ):         830.04799   430.89560   283.64792
 Zero-point vibrational energy      55959.7 (Joules/Mol)
                                   13.37470 (Kcal/Mol)
 Vibrational temperatures:   2337.32  5487.06  5636.43
          (Kelvin)

 Zero-point correction=                           0.021314 (Hartree/Particle)
 Thermal correction to Energy=                    0.024149
 Thermal correction to Enthalpy=                  0.025094
 Thermal correction to Gibbs Free Energy=         0.003677
 Sum of electronic and zero-point Energies=            -76.447677
 Sum of electronic and thermal Energies=               -76.444842
 Sum of electronic and thermal Enthalpies=             -76.443897
 Sum of electronic and thermal Free Energies=          -76.465314

                     E (Thermal)             CV                S
                      KCal/Mol        Cal/Mol-Kelvin    Cal/Mol-Kelvin
 Total                   15.154              6.010             45.074
 Electronic               0.000              0.000              0.000
 Translational            0.889              2.981             34.608
 Rotational               0.889              2.981             10.459
 Vibrational             13.377              0.048              0.007

 Optimization completed.
    -- Stationary point found.
 Normal termination of Gaussian 09 at Fri Aug 27 00:01:22 2021.
