 Gaussian 09, Revision E.01,
 Gaussian 09:  EM64L-G09RevE.01 30-Nov-2015

 ----------------------------------------------------------------------
 #p opt=(calcfc,qst3,cartesian) freq TPSSh/gen int=acc2e=12 scf=(novara
 cc,noincfock)
 ----------------------------------------------------------------------

 -------------------------
 HY_H2O_TPSSh_PC2_OPT_FREQ
 -------------------------
 Symbolic Z-matrix:
 Charge =  0 Multiplicity = 1

 -------------------------
 PY_H2O_TPSSh_PC2_OPT_FREQ
 -------------------------
 Symbolic Z-matrix:
 Charge =  0 Multiplicity = 1

 -------------
 TST_H2O_TPSSh
 -------------
 Symbolic Z-matrix:
 Charge =  0 Multiplicity = 1

 SCF Done:  E(RTPSSh) =  -400.102583097     A.U. after   13 cycles
 SCF Done:  E(RTPSSh) =  -400.107067273     A.U. after   11 cycles
 SCF Done:  E(RTPSSh) =  -400.108763273     A.U. after   11 cycles
 SCF Done:  E(RTPSSh) =  -400.111547042     A.U. after   11 cycles
 SCF Done:  E(RTPSSh) =  -400.112905136     A.U. after   11 cycles
 SCF Done:  E(RTPSSh) =  -400.120218840     A.U. after   10 cycles
 SCF Done:  E(RTPSSh) =  -400.120776982     A.U. after   11 cycles
 SCF Done:  E(RTPSSh) =  -400.120897430     A.U. after   10 cycles
 SCF Done:  E(RTPSSh) =  -400.120930855     A.U. after    9 cycles
 SCF Done:  E(RTPSSh) =  -400.120932454     A.U. after    9 cycles
 SCF Done:  E(RTPSSh) =  -400.120932863     A.U. after    8 cycles
 SCF Done:  E(RTPSSh) =  -400.120933054     A.U. after    6 cycles
 Optimization completed.
    -- Stationary point found.
 Normal termination of Gaussian 09 at Fri Sep  3 03:06:39 2021.

 ------------------------------------------------------------------
 #P Geom=AllCheck Guess=TCheck SCRF=Check GenChk RTPSSh/ChkBas Freq
 ------------------------------------------------------------------

 Structure from the checkpoint file:  "TST_H2O_TPSSh.chk"
 -------------------------
 HY_H2O_TPSSh_PC2_OPT_FREQ
 -------------------------
 Charge =  0 Multiplicity = 1

                         Standard orientation:
 ---------------------------------------------------------------------
 Center     Atomic      Atomic             Coordinates (Angstroms)
 Number     Number       Type             X           Y           Z
 ---------------------------------------------------------------------
      1          8           0        1.379018    1.328681   -0.010693
      2          7           0        0.314646   -0.683446   -0.010489
      3          6           0        0.259873    0.679139   -0.003275
      4          6           0       -1.005649    1.308863    0.010362
      5          6           0       -0.799072   -1.434040   -0.007860
      6          6           0       -2.140555    0.532624    0.013337
      7          6           0       -2.052271   -0.869802    0.003986
      8          1           0        2.230777    0.493884   -0.022717
      9          1           0       -1.044161    2.388812    0.015666
     10          1           0       -0.646385   -2.505935   -0.018263
     11          1           0       -3.113647    1.009009    0.022033
     12          1           0       -2.934889   -1.492683    0.004167
     13          8           0        2.741335   -0.649818   -0.081322
     14          1           0        3.241226   -0.853792    0.716196
     15          1           0        1.527771   -0.986772   -0.006839
 ---------------------------------------------------------------------

 SCF Done:  E(RTPSSh) =  -400.120933054     A.U. after    1 cycles

 The electronic state is 1-A.
 Alpha  occ. eigenvalues --  -19.04380 -19.02867 -14.28334 -10.21881 -10.17521
 Alpha  occ. eigenvalues --  -10.14787 -10.13038 -10.13017  -1.03635  -0.95054
 Alpha  occ. eigenvalues --   -0.93275  -0.80290  -0.74755  -0.64415  -0.61735
 Alpha  occ. eigenvalues --   -0.54044  -0.52583  -0.48454  -0.46454  -0.44688
 Alpha  occ. eigenvalues --   -0.43252  -0.41847  -0.38367  -0.37713  -0.34333
 Alpha  occ. eigenvalues --   -0.33621  -0.29990  -0.28231  -0.25935  -0.22899
 Alpha virt. eigenvalues --   -0.06314  -0.02444   0.01336   0.02856   0.04003
 Alpha virt. eigenvalues --    0.05865   0.07542   0.10572   0.10813   0.12356
 Alpha virt. eigenvalues --    0.14204   0.15143   0.16172   0.17847   0.18456

 Mulliken charges:
               1
     1  O   -0.502488
     2  N   -0.399891
     3  C    0.511314
     4  C   -0.110600
     5  C    0.187252
     6  C    0.068194
     7  C   -0.146532
     8  H    0.277624
     9  H    0.042865
    10  H    0.066912
    11  H    0.049691
    12  H    0.032464
    13  O   -0.555155
    14  H    0.214700
    15  H    0.263650
 Sum of Mulliken charges =  -0.00000

 Dipole moment (field-independent basis, Debye):
    X=             -2.8826    Y=             -1.5885    Z=              1.3696  Tot=              3.5650
 Quadrupole moment (field-independent basis, Debye-Ang):
   XX=            -45.1054   YY=            -44.9727   ZZ=            -48.9809
   XY=             -2.3531   XZ=              4.9219   YZ=             -1.3152

  Exact polarizability: 105.991   2.191  84.845   1.136  -0.287  43.868
 Approx polarizability: 171.738  12.040 153.453   1.063  -0.365  68.569

 ******    1 imaginary frequencies (negative Signs) ******

                      1                      2                      3
                      A                      A                      A
 Frequencies --  -1518.1453               109.3038               207.8543
 Red. masses --      1.0558                 5.2037                 5.1329
 Frc consts  --      1.4337                 0.0366                 0.1307
 IR Inten    --    270.2561                 2.7065                 1.6482

                      4                      5                      6
                      A                      A                      A
 Frequencies --    327.4365               407.9148               454.1721
 Red. masses --      5.3925                 3.2761                 4.7028
 Frc consts  --      0.3406                 0.3212                 0.5715
 IR Inten    --     12.5724                 4.3663                30.1016

                      7                      8                      9
                      A                      A                      A
 Frequencies --    505.0469               537.8406               571.4967
 Red. masses --      1.4065                 2.1212                 5.6825
 Frc consts  --      0.2114                 0.3615                 1.0935
 IR Inten    --      1.1740                12.7949                20.2041

                     10                     11                     12
                      A                      A                      A
 Frequencies --    607.2212               650.2505               700.3166
 Red. masses --      1.3329                 4.2996                 7.1274
 Frc consts  --      0.2896                 1.0711                 2.0595
 IR Inten    --     53.7862                14.2166               160.3955

                     13                     14                     15
                      A                      A                      A
 Frequencies --    751.9468               789.6395               860.3440
 Red. masses --      2.1729                 1.8072                 5.5389
 Frc consts  --      0.7239                 0.6639                 2.4156
 IR Inten    --     15.2922                50.4251                33.6701

                     16                     17                     18
                      A                      A                      A
 Frequencies --    874.6343               966.5113               995.1737
 Red. masses --      1.4681                 1.3571                 3.4304
 Frc consts  --      0.6617                 0.7469                 2.0017
 IR Inten    --      4.8046                 1.6899               822.9087

                     19                     20                     21
                      A                      A                      A
 Frequencies --   1006.2997              1049.3013              1138.3126
 Red. masses --      1.2916                 2.3250                 1.5145
 Frc consts  --      0.7706                 1.5083                 1.1562
 IR Inten    --      0.6073                 2.4623               221.5180

                     22                     23                     24
                      A                      A                      A
 Frequencies --   1175.6125              1234.1163              1286.5005
 Red. masses --      1.0894                 1.2336                 2.9698
 Frc consts  --      0.8871                 1.1070                 2.8959
 IR Inten    --     39.4180              4432.5405               204.6445

                     25                     26                     27
                      A                      A                      A
 Frequencies --   1327.0670              1365.1604              1396.7723
 Red. masses --      1.7691                 1.1292                 2.2541
 Frc consts  --      1.8357                 1.2399                 2.5911
 IR Inten    --    388.6162                47.9457                13.3660

                     28                     29                     30
                      A                      A                      A
 Frequencies --   1433.0561              1490.9710              1540.3423
 Red. masses --      1.0830                 2.3609                 2.9458
 Frc consts  --      1.3105                 3.0922                 4.1180
 IR Inten    --     83.5935                44.3408               150.6331

                     31                     32                     33
                      A                      A                      A
 Frequencies --   1572.2777              1665.2460              1672.8175
 Red. masses --      3.6984                 1.3845                 4.4091
 Frc consts  --      5.3868                 2.2620                 7.2694
 IR Inten    --     51.8569               246.8939               162.5923

                     34                     35                     36
                      A                      A                      A
 Frequencies --   1919.2107              3171.1880              3182.0950
 Red. masses --      1.0620                 1.0885                 1.0905
 Frc consts  --      2.3047                 6.4494                 6.5057
 IR Inten    --     13.4180                 7.6878                 7.6036

                     37                     38                     39
                      A                      A                      A
 Frequencies --   3210.6211              3215.1678              3822.0261
 Red. masses --      1.0928                 1.0966                 1.0659
 Frc consts  --      6.6372                 6.6791                 9.1738
 IR Inten    --      5.3902                 4.8206                30.2204

 - Thermochemistry -
 -------------------
 Temperature   298.150 Kelvin.  Pressure   1.00000 Atm.
 Atom     1 has atomic number  8 and mass  15.99491

 Molecular mass:   113.04768 amu.
 Principal axes and moments of inertia in atomic units:
                           1         2         3
     Eigenvalues --   437.952471131.047911564.63841
           X            0.99988  -0.01424   0.00686
           Y            0.01427   0.99989  -0.00448
           Z           -0.00680   0.00457   0.99997
 This molecule is an asymmetric top.
 Rotational symmetry number  1.
 Warning -- assumption of classical behavior for rotation
           may cause significant error
 Rotational temperatures (Kelvin)      0.19777     0.07658     0.05536
 Rotational constants (GHZ):           4.12086     1.59564     1.15346
    1 imaginary frequencies ignored.
 Zero-point vibrational energy     294229.1 (Joules/Mol)
                                   70.32244 (Kcal/Mol)
 Warning -- explicit consideration of   9 degrees of freedom as
           vibrations may cause significant error
 Vibrational temperatures:    157.26   299.06   471.11   586.90   653.45
          (Kelvin)            726.65   773.83   822.26   873.65   935.56
                             1007.60  1081.88  1136.11  1237.84  1258.40
                             1390.59  1431.83  1447.84  1509.71  1637.78
                             1691.44  1775.62  1850.99  1909.35  1964.16
                             2009.64  2061.85  2145.17  2216.21  2262.15
                             2395.91  2406.81  2761.31  4562.63  4578.32
                             4619.36  4625.90  5499.04

 Zero-point correction=                           0.112066 (Hartree/Particle)
 Thermal correction to Energy=                    0.118671
 Thermal correction to Enthalpy=                  0.119615
 Thermal correction to Gibbs Free Energy=         0.081210
 Sum of electronic and zero-point Energies=           -400.008867
 Sum of electronic and thermal Energies=              -400.002263
 Sum of electronic and thermal Enthalpies=            -400.001318
 Sum of electronic and thermal Free Energies=         -400.039723

                     E (Thermal)             CV                S
                      KCal/Mol        Cal/Mol-Kelvin    Cal/Mol-Kelvin
 Total                   74.467             25.979             80.830
 Electronic               0.000              0.000              0.000
 Translational            0.889              2.981             40.084
 Rotational               0.889              2.981             28.140
 Vibrational             72.689             20.017             12.606
 Vibration     1          0.606              1.942              3.281
 Vibration     2          0.641              1.829              2.062
 Vibration     3          0.711              1.621              1.273
 Vibration     4          0.772              1.453              0.934
 Vibration     5          0.813              1.352              0.783
 Vibration     6          0.860              1.239              0.646
 Vibration     7          0.893              1.166              0.570
 Vibration     8          0.928              1.093              0.501
 Vibration     9          0.966              1.017              0.437

 Normal termination of Gaussian 09 at Fri Sep  3 03:19:22 2021.
