 Gaussian 09, Revision E.01,
 Gaussian 09:  EM64L-G09RevE.01 30-Nov-2015

 --------------------------------------------------------------------
 #p opt CCSD/gen SCF(novaracc,noincfock) int=acc2e=12 geom=checkpoint
 --------------------------------------------------------------------

 ------------------------
 HY_H2O_CCSD_PC2_OPT_FREQ
 ------------------------
 Structure from the checkpoint file:  "HY_H2O_CCSD_PC2_OPT_FREQ.chk"
 Charge =  0 Multiplicity = 1

 SCF Done:  E(RHF) =  -397.755157023     A.U. after   13 cycles
 E2 =    -0.1460705830D+01 EUMP2 =    -0.39921586285288D+03

 The electronic state is 1-A.
 Alpha  occ. eigenvalues --  -20.57355 -20.55395 -15.56469 -11.34307 -11.28384
 Alpha  occ. eigenvalues --  -11.26307 -11.23405 -11.23225  -1.42103  -1.35150
 Alpha  occ. eigenvalues --   -1.26019  -1.09868  -1.03124  -0.88346  -0.85830
 Alpha  occ. eigenvalues --   -0.75385  -0.73210  -0.70291  -0.67038  -0.62585
 Alpha  occ. eigenvalues --   -0.61239  -0.59482  -0.59308  -0.56803  -0.53681
 Alpha  occ. eigenvalues --   -0.51144  -0.50911  -0.44140  -0.39737  -0.33221
 Alpha virt. eigenvalues --    0.09509   0.10100   0.11004   0.11935   0.13206
 Alpha virt. eigenvalues --    0.13570   0.14935   0.19328   0.20638   0.25611
 Alpha virt. eigenvalues --    0.26179   0.27758   0.28539   0.28673   0.30197

 Mulliken charges:
               1
     1  O   -0.530869
     2  N   -0.657410
     3  C    0.716271
     4  C   -0.107108
     5  C    0.335379
     6  C    0.162608
     7  C   -0.183616
     8  H    0.265032
     9  H   -0.000920
    10  H    0.007645
    11  H    0.004647
    12  H   -0.019049
    13  O   -0.503701
    14  H    0.235259
    15  H    0.275830
 Sum of Mulliken charges =  -0.00000

 Dipole moment (field-independent basis, Debye):
    X=             -1.9756    Y=             -1.5940    Z=              1.3516  Tot=              2.8758
 Quadrupole moment (field-independent basis, Debye-Ang):
   XX=            -41.6365   YY=            -44.7425   ZZ=            -50.1087
   XY=             -3.6359   XZ=              5.4547   YZ=             -1.3802

 Optimization completed.
    -- Stationary point found.

                         Standard orientation:
 ---------------------------------------------------------------------
 Center     Atomic      Atomic             Coordinates (Angstroms)
 Number     Number       Type             X           Y           Z
 ---------------------------------------------------------------------
      1          8           0        1.203253    1.446532    0.001983
      2          7           0        0.307248   -0.666891   -0.000240
      3          6           0        0.130868    0.646220    0.002507
      4          6           0       -1.133983    1.251116    0.006214
      5          6           0       -0.788254   -1.443995   -0.002754
      6          6           0       -2.241355    0.435252    0.005208
      7          6           0       -2.074604   -0.953009    0.000108
      8          1           0        2.006620    0.900540   -0.011758
      9          1           0       -1.204401    2.325894    0.008077
     10          1           0       -0.604288   -2.508269   -0.007838
     11          1           0       -3.230488    0.867319    0.007113
     12          1           0       -2.917420   -1.623877   -0.002408
     13          8           0        3.116073   -0.571373   -0.087033
     14          1           0        3.633053   -0.895428    0.648351
     15          1           0        2.255551   -1.012718   -0.027161
 ---------------------------------------------------------------------

 Normal termination of Gaussian 09 at Wed Sep  8 02:37:41 2021.
