 Gaussian 09, Revision E.01,
 Gaussian 09:  EM64L-G09RevE.01 30-Nov-2015

 ---------------------
 #p G3 geom=checkpoint
 ---------------------

 ------
 4HY_G3
 ------
 Structure from the checkpoint file:  "4HY_G3.chk"
 Charge =  0 Multiplicity = 1

 SCF Done:  E(RHF) =  -321.553521575     A.U. after   14 cycles
 SCF Done:  E(RHF) =  -321.554583237     A.U. after   12 cycles
 SCF Done:  E(RHF) =  -321.554630139     A.U. after   10 cycles
 SCF Done:  E(RHF) =  -321.554632041     A.U. after    9 cycles
 Optimization completed.
    -- Stationary point found.
 Normal termination of Gaussian 09 at Sun Sep  5 14:57:40 2021.

 -------------------------------------------------------
 #P Geom=AllCheck Guess=TCheck SCRF=Check HF/GTBas1 Freq
 -------------------------------------------------------

 Structure from the checkpoint file:  "4HY_G3.chk"
 ------
 4HY_G3
 ------
 Charge =  0 Multiplicity = 1

 SCF Done:  E(RHF) =  -321.554632041     A.U. after    1 cycles

  Exact polarizability:  66.611   1.346  65.101  -0.001  -0.002  22.210
 Approx polarizability:  66.006   0.592  63.010  -0.001  -0.002  25.084

                      1                      2                      3
                      A                      A                      A
 Frequencies --    253.6458               391.5754               443.1371
 Red. masses --      5.6534                 1.1239                 4.0377
 Frc consts  --      0.2143                 0.1015                 0.4672
 IR Inten    --      0.2962               153.0422                12.1446
 Raman Activ --      0.9617                 2.0368                 0.4560

                      4                      5                      6
                      A                      A                      A
 Frequencies --    446.8280               566.8692               596.6102
 Red. masses --      2.7260                 8.4997                 2.7993
 Frc consts  --      0.3207                 1.6092                 0.5871
 IR Inten    --      1.1173                 0.3869                14.9568
 Raman Activ --      0.0500                 4.0004                 0.6183

                      7                      8                      9
                      A                      A                      A
 Frequencies --    733.4125               816.5860               912.9100
 Red. masses --      7.0064                 3.0702                 5.5966
 Frc consts  --      2.2205                 1.2062                 2.7481
 IR Inten    --      0.1830                 3.7734                46.4345
 Raman Activ --      5.6280                 0.1378                14.2175

                     10                     11                     12
                      A                      A                      A
 Frequencies --    913.3545               941.1726              1086.9444
 Red. masses --      1.5327                 1.3293                 1.3564
 Frc consts  --      0.7533                 0.6938                 0.9442
 IR Inten    --     61.1406                18.5533                 2.4716
 Raman Activ --      1.2051                 2.0027                 0.9040

                     13                     14                     15
                      A                      A                      A
 Frequencies --   1090.5581              1130.1955              1167.6343
 Red. masses --      7.6487                 1.4203                 1.7665
 Frc consts  --      5.3596                 1.0689                 1.4190
 IR Inten    --     19.5105                 0.0714                 0.5136
 Raman Activ --     18.6224                 2.1732                 3.8267

                     16                     17                     18
                      A                      A                      A
 Frequencies --   1189.9532              1226.7157              1345.6069
 Red. masses --      1.6788                 3.3147                 1.3100
 Frc consts  --      1.4006                 2.9389                 1.3975
 IR Inten    --      0.3749                48.5299                12.8704
 Raman Activ --      0.3995                 3.7044                 9.1679

                     19                     20                     21
                      A                      A                      A
 Frequencies --   1358.3192              1432.1805              1507.8556
 Red. masses --      1.4858                 3.7393                 1.2197
 Frc consts  --      1.6152                 4.5189                 1.6339
 IR Inten    --    118.0078                75.3041                35.0391
 Raman Activ --      5.7914                 4.7865                 0.7370

                     22                     23                     24
                      A                      A                      A
 Frequencies --   1592.9805              1685.4649              1798.0768
 Red. masses --      2.3486                 2.4569                 5.8262
 Frc consts  --      3.5113                 4.1123                11.0982
 IR Inten    --     41.7430                74.8760               163.2299
 Raman Activ --      0.8471                 0.7350                10.1240

                     25                     26                     27
                      A                      A                      A
 Frequencies --   1812.3436              3356.0409              3369.3663
 Red. masses --      5.4831                 1.0893                 1.0908
 Frc consts  --     10.6110                 7.2287                 7.2961
 IR Inten    --    147.2226                13.1573                38.4812
 Raman Activ --      8.6171                61.2224                66.2644

                     28                     29                     30
                      A                      A                      A
 Frequencies --   3376.7850              3407.7838              4108.9499
 Red. masses --      1.0970                 1.0961                 1.0668
 Frc consts  --      7.3700                 7.4999                10.6119
 IR Inten    --     20.1022                 5.8599                93.6916
 Raman Activ --    157.1828               121.4857                76.3433

 - Thermochemistry -
 -------------------
 Temperature   298.150 Kelvin.  Pressure   1.00000 Atm.
 Atom     1 has atomic number  6 and mass  12.00000

 Molecular mass:    95.03711 amu.
 Principal axes and moments of inertia in atomic units:
                           1         2         3
     Eigenvalues --   295.77398 672.64439 968.41837
           X            0.99979   0.02061   0.00003
           Y           -0.02061   0.99979   0.00006
           Z           -0.00003  -0.00006   1.00000
 This molecule is an asymmetric top.
 Rotational symmetry number  1.
 Rotational temperatures (Kelvin)      0.29284     0.12877     0.08944
 Rotational constants (GHZ):           6.10176     2.68305     1.86360
 Zero-point vibrational energy     263536.5 (Joules/Mol)
                                   62.98673 (Kcal/Mol)
 Warning -- explicit consideration of   6 degrees of freedom as
           vibrations may cause significant error
 Vibrational temperatures:    364.94   563.39   637.57   642.89   815.60
          (Kelvin)            858.39  1055.22  1174.88  1313.47  1314.11
                             1354.14  1563.87  1569.07  1626.10  1679.96
                             1712.08  1764.97  1936.03  1954.32  2060.59
                             2169.47  2291.94  2425.01  2587.03  2607.55
                             4828.59  4847.76  4858.43  4903.03  5911.85

 Zero-point correction=                           0.100376 (Hartree/Particle)
 Thermal correction to Energy=                    0.105371
 Thermal correction to Enthalpy=                  0.106315
 Thermal correction to Gibbs Free Energy=         0.071696
 Sum of electronic and zero-point Energies=           -321.454256
 Sum of electronic and thermal Energies=              -321.449261
 Sum of electronic and thermal Enthalpies=            -321.448317
 Sum of electronic and thermal Free Energies=         -321.482936

                     E (Thermal)             CV                S
                      KCal/Mol        Cal/Mol-Kelvin    Cal/Mol-Kelvin
 Total                   66.121             18.914             72.861
 Electronic               0.000              0.000              0.000
 Translational            0.889              2.981             39.566
 Rotational               0.889              2.981             26.757
 Vibrational             64.344             12.952              6.538
 Vibration     1          0.665              1.757              1.705
 Vibration     2          0.759              1.488              0.994
 Vibration     3          0.803              1.376              0.817
 Vibration     4          0.806              1.368              0.805
 Vibration     5          0.923              1.103              0.510
 Vibration     6          0.954              1.039              0.456

 Optimization completed.
    -- Stationary point found.
 Normal termination of Gaussian 09 at Sun Sep  5 14:57:55 2021.

 ------------------------------------------------------------------
 #P Geom=AllCheck Guess=TCheck SCRF=Check MP2(Full)/GTBas1 Opt=RCFC
 ------------------------------------------------------------------

 Structure from the checkpoint file:  "4HY_G3.chk"
 ------
 4HY_G3
 ------
 Charge =  0 Multiplicity = 1

 SCF Done:  E(RHF) =  -321.554632041     A.U. after    1 cycles
 E2 =    -0.9916712174D+00 EUMP2 =    -0.32254630325862D+03
 SCF Done:  E(RHF) =  -321.552118056     A.U. after   12 cycles
 E2 =    -0.9970311484D+00 EUMP2 =    -0.32254914920427D+03
 SCF Done:  E(RHF) =  -321.551466195     A.U. after   10 cycles
 E2 =    -0.9977200590D+00 EUMP2 =    -0.32254918625447D+03
 Optimization completed.
    -- Stationary point found.
 Normal termination of Gaussian 09 at Sun Sep  5 14:58:12 2021.

 ------------------------------------------------------------------
 #P Geom=AllCheck Guess=TCheck SCRF=Check QCISD(T,E4T,FrzG3)/GTBas1
 ------------------------------------------------------------------

 Structure from the checkpoint file:  "4HY_G3.chk"
 ------
 4HY_G3
 ------
 Charge =  0 Multiplicity = 1

 SCF Done:  E(RHF) =  -321.551466195     A.U. after    1 cycles
 E2 =    -0.9665559909D+00 EUMP2 =    -0.32251802218635D+03
 Normal termination of Gaussian 09 at Sun Sep  5 15:01:35 2021.

 ---------------------------------------------------------
 #P Geom=AllCheck Guess=TCheck SCRF=Check MP4=FrzG3/GTBas2
 ---------------------------------------------------------

 Structure from the checkpoint file:  "4HY_G3.chk"
 ------
 4HY_G3
 ------
 Charge =  0 Multiplicity = 1

 SCF Done:  E(RHF) =  -321.561805489     A.U. after   13 cycles
 E2 =    -0.9787608914D+00 EUMP2 =    -0.32254056638047D+03
 Normal termination of Gaussian 09 at Sun Sep  5 15:03:57 2021.

 ---------------------------------------------------------
 #P Geom=AllCheck Guess=TCheck SCRF=Check MP4=FrzG3/GTBas3
 ---------------------------------------------------------

 Structure from the checkpoint file:  "4HY_G3.chk"
 ------
 4HY_G3
 ------
 Charge =  0 Multiplicity = 1

 SCF Done:  E(RHF) =  -321.586876517     A.U. after   12 cycles
 E2 =    -0.1157928144D+01 EUMP2 =    -0.32274480466101D+03
 Normal termination of Gaussian 09 at Sun Sep  5 15:18:18 2021.

                         Standard orientation:
 ---------------------------------------------------------------------
 Center     Atomic      Atomic             Coordinates (Angstroms)
 Number     Number       Type             X           Y           Z
 ---------------------------------------------------------------------
      1          6           0       -1.154711    1.152908   -0.000020
      2          6           0        0.238266    1.189260   -0.000064
      3          6           0        0.931141   -0.020008   -0.000029
      4          6           0        0.200779   -1.207876    0.000051
      5          6           0       -1.186581   -1.127741    0.000092
      6          7           0       -1.880778    0.025036    0.000058
      7          1           0       -1.719388    2.083542   -0.000047
      8          1           0        0.762992    2.142554   -0.000130
      9          1           0        0.717184   -2.162458    0.000084
     10          1           0       -1.781901   -2.038768    0.000154
     11          8           0        2.293160   -0.113147   -0.000067
     12          1           0        2.667908    0.785794   -0.000116
 ---------------------------------------------------------------------

 SCF Done:  E(RHF) =  -321.662128439     A.U. after   13 cycles
 E2 =    -0.1514232745D+01 EUMP2 =    -0.32317636118372D+03

 The electronic state is 1-A.
 Alpha  occ. eigenvalues --  -20.61265 -15.55946 -11.32984 -11.28351 -11.28047
 Alpha  occ. eigenvalues --  -11.24311 -11.23609  -1.42512  -1.25468  -1.08073
 Alpha  occ. eigenvalues --   -1.03932  -0.87617  -0.85641  -0.75622  -0.70062
 Alpha  occ. eigenvalues --   -0.66553  -0.63187  -0.61071  -0.60283  -0.59198
 Alpha  occ. eigenvalues --   -0.52589  -0.51781  -0.42367  -0.36203  -0.35524
 Alpha virt. eigenvalues --    0.03386   0.04830   0.05138   0.06873   0.07828
 Alpha virt. eigenvalues --    0.09746   0.10195   0.11383   0.13206   0.13788
 Alpha virt. eigenvalues --    0.14112   0.14129   0.14735   0.15664   0.17080

 Mulliken charges:
               1
     1  C   -0.155326
     2  C    0.247468
     3  C   -0.153742
     4  C   -0.000260
     5  C   -0.148621
     6  N   -0.379164
     7  H    0.176395
     8  H    0.119672
     9  H    0.184398
    10  H    0.181386
    11  O   -0.364512
    12  H    0.292308
 Sum of Mulliken charges =  -0.00000

 Dipole moment (field-independent basis, Debye):
    X=              2.1952    Y=              1.3947    Z=             -0.0001  Tot=              2.6008
 Quadrupole moment (field-independent basis, Debye-Ang):
   XX=            -44.6871   YY=            -32.9424   ZZ=            -44.1211
   XY=              4.7193   XZ=             -0.0002   YZ=             -0.0007

 Normal termination of Gaussian 09 at Sun Sep  5 15:20:21 2021.
