 Gaussian 09, Revision E.01,
 Gaussian 09:  EM64L-G09RevE.01 30-Nov-2015

 -------------------
 #p opt freq M06/gen
 -------------------

 -------------------
 PY_M06_PC2_OPT_FREQ
 -------------------
 Symbolic Z-matrix:
 Charge =  0 Multiplicity = 1

 SCF Done:  E(RM06) =  -323.437352560     A.U. after   16 cycles
 Optimization completed.
    -- Stationary point found.
 Normal termination of Gaussian 09 at Fri Aug 27 00:16:02 2021.

 ----------------------------------------------------------------
 #P Geom=AllCheck Guess=TCheck SCRF=Check GenChk RM06/ChkBas Freq
 ----------------------------------------------------------------

 Structure from the checkpoint file:  "PY_M06_PC2_OPT_FREQ.chk"
 -------------------
 PY_M06_PC2_OPT_FREQ
 -------------------
 Charge =  0 Multiplicity = 1

                         Standard orientation:
 ---------------------------------------------------------------------
 Center     Atomic      Atomic             Coordinates (Angstroms)
 Number     Number       Type             X           Y           Z
 ---------------------------------------------------------------------
      1          8           0       -0.130304    2.267896    0.000000
      2          7           0       -1.132141    0.233271    0.000000
      3          6           0       -0.000000    1.062005    0.000000
      4          6           0        1.237945    0.320111   -0.000000
      5          6           0       -1.114407   -1.121885    0.000000
      6          6           0        1.256071   -1.032342   -0.000000
      7          6           0        0.058564   -1.791590   -0.000000
      8          1           0       -2.007624    0.732742    0.000000
      9          1           0        2.144218    0.908369   -0.000000
     10          1           0       -2.076968   -1.614034    0.000000
     11          1           0        2.206750   -1.551299   -0.000000
     12          1           0        0.071999   -2.869636   -0.000000
 ---------------------------------------------------------------------

 SCF Done:  E(RM06) =  -323.437352560     A.U. after    1 cycles

 The electronic state is 1-A'.
 Alpha  occ. eigenvalues --  -19.16044 -14.44232 -10.33912 -10.30390 -10.26611
 Alpha  occ. eigenvalues --  -10.24785 -10.24427  -1.06084  -0.97958  -0.83837
 Alpha  occ. eigenvalues --   -0.77533  -0.67022  -0.65199  -0.57782  -0.52402
 Alpha  occ. eigenvalues --   -0.50179  -0.47642  -0.46348  -0.44301  -0.40638
 Alpha  occ. eigenvalues --   -0.39108  -0.36834  -0.32893  -0.27449  -0.24095
 Alpha virt. eigenvalues --   -0.04557  -0.00785   0.00921   0.00981   0.02278
 Alpha virt. eigenvalues --    0.04666   0.05165   0.12518   0.13384   0.14205
 Alpha virt. eigenvalues --    0.15658   0.16160   0.17581   0.18931   0.19759

 Mulliken charges:
               1
     1  O   -0.518148
     2  N   -0.275943
     3  C    0.490275
     4  C   -0.141432
     5  C    0.143745
     6  C    0.050721
     7  C   -0.121474
     8  H    0.157009
     9  H    0.056015
    10  H    0.072730
    11  H    0.050216
    12  H    0.036287
 Sum of Mulliken charges =  -0.00000

 Dipole moment (field-independent basis, Debye):
    X=             -1.1816    Y=             -4.0995    Z=              0.0000  Tot=              4.2664
 Quadrupole moment (field-independent basis, Debye-Ang):
   XX=            -31.4244   YY=            -47.3809   ZZ=            -42.4823
   XY=              0.0933   XZ=              0.0000   YZ=             -0.0000

  Exact polarizability:  72.199   0.154  88.678   0.000   0.000  37.381
 Approx polarizability: 109.058  -0.405 140.323  -0.000   0.000  54.152

                      1                      2                      3
                     A"                     A"                     A'
 Frequencies --    169.9772               383.2761               455.2793
 Red. masses --      5.8049                 3.2751                 5.9826
 Frc consts  --      0.0988                 0.2835                 0.7306
 IR Inten    --      2.7485                 1.4557                 6.6087

                      4                      5                      6
                     A"                     A'                     A'
 Frequencies --    486.0347               545.6558               614.4309
 Red. masses --      2.0337                 7.7684                 6.6896
 Frc consts  --      0.2831                 1.3628                 1.4880
 IR Inten    --     35.6137                 5.8736                 0.4965

                      7                      8                      9
                     A"                     A"                     A"
 Frequencies --    696.2320               740.6591               775.5928
 Red. masses --      1.3212                 1.5799                 1.9843
 Frc consts  --      0.3773                 0.5106                 0.7033
 IR Inten    --     40.2074                 7.4276                59.2062

                     10                     11                     12
                     A'                     A"                     A"
 Frequencies --    827.8215               863.4369               950.8851
 Red. masses --      5.0532                 1.7694                 1.3075
 Frc consts  --      2.0403                 0.7772                 0.6965
 IR Inten    --      9.9500                22.2081                 0.0742

                     13                     14                     15
                     A'                     A"                     A'
 Frequencies --    993.7557              1010.5593              1022.2856
 Red. masses --      4.7344                 1.2898                 2.5998
 Frc consts  --      2.7547                 0.7761                 1.6008
 IR Inten    --     12.0221                 0.2516                 4.9107

                     16                     17                     18
                     A'                     A'                     A'
 Frequencies --   1107.1913              1148.1229              1207.4806
 Red. masses --      1.5539                 1.1576                 1.1617
 Frc consts  --      1.1223                 0.8991                 0.9979
 IR Inten    --     17.8655                15.7891                14.3877

                     19                     20                     21
                     A'                     A'                     A'
 Frequencies --   1238.0106              1374.2510              1446.3106
 Red. masses --      2.5170                 1.5152                 2.0776
 Frc consts  --      2.2729                 1.6859                 2.5606
 IR Inten    --     18.4550                 2.0266                 5.8832

                     22                     23                     24
                     A'                     A'                     A'
 Frequencies --   1485.2907              1598.7022              1682.1057
 Red. masses --      2.6217                 5.7438                 5.4877
 Frc consts  --      3.4076                 8.6493                 9.1484
 IR Inten    --      5.4437                78.6273                32.2721

                     25                     26                     27
                     A'                     A'                     A'
 Frequencies --   1793.5523              3179.0197              3206.0884
 Red. masses --      9.1108                 1.0887                 1.0909
 Frc consts  --     17.2678                 6.4822                 6.6065
 IR Inten    --    703.8333                 8.3859                 1.8204

                     28                     29                     30
                     A'                     A'                     A'
 Frequencies --   3208.9102              3236.4509              3604.4979
 Red. masses --      1.0943                 1.0969                 1.0778
 Frc consts  --      6.6389                 6.7693                 8.2505
 IR Inten    --      1.3172                 2.6646                62.3957

 - Thermochemistry -
 -------------------
 Temperature   298.150 Kelvin.  Pressure   1.00000 Atm.
 Atom     1 has atomic number  8 and mass  15.99491

 Molecular mass:    95.03711 amu.
 Principal axes and moments of inertia in atomic units:
                           1         2         3
     Eigenvalues --   314.73641 639.34050 954.07691
           X           -0.05808   0.99831   0.00000
           Y            0.99831   0.05808   0.00000
           Z           -0.00000   0.00000   1.00000
 This molecule is an asymmetric top.
 Rotational symmetry number  1.
 Rotational temperatures (Kelvin)      0.27519     0.13547     0.09078
 Rotational constants (GHZ):           5.73414     2.82282     1.89161
 Zero-point vibrational energy     245544.7 (Joules/Mol)
                                   58.68659 (Kcal/Mol)
 Warning -- explicit consideration of   6 degrees of freedom as
           vibrations may cause significant error
 Vibrational temperatures:    244.56   551.45   655.04   699.29   785.08
          (Kelvin)            884.03  1001.72  1065.64  1115.90  1191.05
                             1242.29  1368.11  1429.79  1453.97  1470.84
                             1593.00  1651.89  1737.29  1781.22  1977.24
                             2080.92  2137.00  2300.17  2420.17  2580.52
                             4573.89  4612.84  4616.90  4656.53  5186.06

 Zero-point correction=                           0.093523 (Hartree/Particle)
 Thermal correction to Energy=                    0.098813
 Thermal correction to Enthalpy=                  0.099757
 Thermal correction to Gibbs Free Energy=         0.064589
 Sum of electronic and zero-point Energies=           -323.343830
 Sum of electronic and thermal Energies=              -323.338540
 Sum of electronic and thermal Enthalpies=            -323.337595
 Sum of electronic and thermal Free Energies=         -323.372764

                     E (Thermal)             CV                S
                      KCal/Mol        Cal/Mol-Kelvin    Cal/Mol-Kelvin
 Total                   62.006             20.404             74.018
 Electronic               0.000              0.000              0.000
 Translational            0.889              2.981             39.566
 Rotational               0.889              2.981             26.754
 Vibrational             60.229             14.443              7.698
 Vibration     1          0.625              1.879              2.436
 Vibration     2          0.752              1.506              1.026
 Vibration     3          0.814              1.349              0.780
 Vibration     4          0.842              1.281              0.694
 Vibration     5          0.901              1.149              0.553
 Vibration     6          0.974              1.001              0.425

 Optimization completed.
    -- Stationary point found.
 Normal termination of Gaussian 09 at Fri Aug 27 00:16:46 2021.
