 Gaussian 09, Revision E.01,
 Gaussian 09:  EM64L-G09RevE.01 30-Nov-2015

 ----------------------------------------------
 #p opt=(calcfc,qst3,MaxCycle=200) freq M06/gen
 ----------------------------------------------

 -------------------
 HY_M06_PC2_OPT_FREQ
 -------------------
 Symbolic Z-matrix:
 Charge =  0 Multiplicity = 1

 -------------------
 PY_M06_PC2_OPT_FREQ
 -------------------
 Symbolic Z-matrix:
 Charge =  0 Multiplicity = 1

 -----------
 TST_GAS_M06
 -----------
 Symbolic Z-matrix:
 Charge =  0 Multiplicity = 1

 SCF Done:  E(RM06) =  -323.360946413     A.U. after   16 cycles
 SCF Done:  E(RM06) =  -323.370195651     A.U. after   14 cycles
 SCF Done:  E(RM06) =  -323.383162435     A.U. after   15 cycles
 SCF Done:  E(RM06) =  -323.383417403     A.U. after   13 cycles
 SCF Done:  E(RM06) =  -323.385173819     A.U. after   14 cycles
 SCF Done:  E(RM06) =  -323.381347702     A.U. after   14 cycles
 SCF Done:  E(RM06) =  -323.377445480     A.U. after   14 cycles
 SCF Done:  E(RM06) =  -323.378832808     A.U. after   14 cycles
 SCF Done:  E(RM06) =  -323.378936755     A.U. after   13 cycles
 SCF Done:  E(RM06) =  -323.378702214     A.U. after   13 cycles
 SCF Done:  E(RM06) =  -323.378944683     A.U. after   13 cycles
 SCF Done:  E(RM06) =  -323.378949545     A.U. after   13 cycles
 SCF Done:  E(RM06) =  -323.378953362     A.U. after    9 cycles
 SCF Done:  E(RM06) =  -323.378953287     A.U. after    8 cycles
 SCF Done:  E(RM06) =  -323.378953593     A.U. after    7 cycles
 Optimization completed.
    -- Stationary point found.
 Normal termination of Gaussian 09 at Sat Aug 28 00:55:59 2021.

 ----------------------------------------------------------------
 #P Geom=AllCheck Guess=TCheck SCRF=Check GenChk RM06/ChkBas Freq
 ----------------------------------------------------------------

 Structure from the checkpoint file:  "TST_GAS_M06.chk"
 -------------------
 HY_M06_PC2_OPT_FREQ
 -------------------
 Charge =  0 Multiplicity = 1

                         Standard orientation:
 ---------------------------------------------------------------------
 Center     Atomic      Atomic             Coordinates (Angstroms)
 Number     Number       Type             X           Y           Z
 ---------------------------------------------------------------------
      1          8           0       -2.219079    0.029246    0.000040
      2          7           0       -0.415718   -1.044888   -0.000061
      3          6           0       -0.956177    0.199290   -0.000021
      4          6           0       -0.118909    1.324254   -0.000022
      5          6           0        0.894571   -1.274538    0.000005
      6          6           0        1.233278    1.085326    0.000002
      7          6           0        1.763880   -0.211240    0.000024
      8          1           0       -1.673327   -1.225490    0.000083
      9          1           0       -0.533423    2.320612   -0.000014
     10          1           0        1.225559   -2.304582    0.000035
     11          1           0        1.913886    1.927591    0.000017
     12          1           0        2.830104   -0.376432    0.000058
 ---------------------------------------------------------------------

 SCF Done:  E(RM06) =  -323.378953593     A.U. after    1 cycles

 The electronic state is 1-A.
 Alpha  occ. eigenvalues --  -19.18810 -14.41671 -10.33905 -10.30175 -10.27266
 Alpha  occ. eigenvalues --  -10.25101 -10.24901  -1.08948  -0.96062  -0.83474
 Alpha  occ. eigenvalues --   -0.77638  -0.68232  -0.63888  -0.56425  -0.52702
 Alpha  occ. eigenvalues --   -0.49032  -0.46761  -0.46459  -0.44221  -0.40864
 Alpha  occ. eigenvalues --   -0.36693  -0.36021  -0.32442  -0.31366  -0.24513
 Alpha virt. eigenvalues --   -0.04694  -0.00090   0.00394   0.01137   0.02640
 Alpha virt. eigenvalues --    0.04637   0.05112   0.12539   0.12635   0.13761
 Alpha virt. eigenvalues --    0.14978   0.16260   0.17253   0.17953   0.19805

 Mulliken charges:
               1
     1  O   -0.551839
     2  N   -0.450457
     3  C    0.546196
     4  C   -0.143653
     5  C    0.137056
     6  C    0.079090
     7  C   -0.142232
     8  H    0.306484
     9  H    0.049649
    10  H    0.078305
    11  H    0.054743
    12  H    0.036657
 Sum of Mulliken charges =   0.00000

 Dipole moment (field-independent basis, Debye):
    X=              3.3681    Y=             -0.3856    Z=              0.0001  Tot=              3.3901
 Quadrupole moment (field-independent basis, Debye-Ang):
   XX=            -44.3727   YY=            -34.3511   ZZ=            -42.5242
   XY=              0.9846   XZ=              0.0001   YZ=             -0.0003

  Exact polarizability:  88.050  -1.489  73.787   0.000  -0.000  37.255
 Approx polarizability: 143.031  -4.791 117.621   0.000  -0.000  54.239

 ******    1 imaginary frequencies (negative Signs) ******

                      1                      2                      3
                      A                      A                      A
 Frequencies --  -1790.8211               185.7243               408.1751
 Red. masses --      1.0806                 6.8049                 3.3738
 Frc consts  --      2.0419                 0.1383                 0.3312
 IR Inten    --    505.8931                 0.0285                 2.0207

                      4                      5                      6
                      A                      A                      A
 Frequencies --    484.9268               495.0356               606.8003
 Red. masses --      2.4311                 6.9944                 7.0378
 Frc consts  --      0.3368                 1.0099                 1.5268
 IR Inten    --     16.6264                 3.0859                 2.0890

                      7                      8                      9
                      A                      A                      A
 Frequencies --    675.1795               740.6163               769.7284
 Red. masses --      6.7561                 2.5166                 1.5176
 Frc consts  --      1.8146                 0.8133                 0.5298
 IR Inten    --      0.1541                 7.2439                48.9528

                     10                     11                     12
                      A                      A                      A
 Frequencies --    853.3286               903.9639               974.1070
 Red. masses --      1.3921                 5.4926                 1.3565
 Frc consts  --      0.5972                 2.6444                 0.7584
 IR Inten    --      2.3914                 6.9493                 1.1367

                     13                     14                     15
                      A                      A                      A
 Frequencies --   1007.6789              1010.0996              1038.3623
 Red. masses --      1.2993                 5.2386                 2.0610
 Frc consts  --      0.7773                 3.1492                 1.3093
 IR Inten    --      0.1910                11.8780                 5.1312

                     16                     17                     18
                      A                      A                      A
 Frequencies --   1120.7870              1132.5409              1157.2112
 Red. masses --      1.1935                 1.3439                 1.1141
 Frc consts  --      0.8833                 1.0156                 0.8790
 IR Inten    --     65.6400                 8.3339                13.2050

                     19                     20                     21
                      A                      A                      A
 Frequencies --   1267.9401              1323.1087              1409.2726
 Red. masses --      2.3929                 2.4185                 2.3262
 Frc consts  --      2.2666                 2.4945                 2.7219
 IR Inten    --      0.6286                32.0258                 2.8837

                     22                     23                     24
                      A                      A                      A
 Frequencies --   1481.4255              1559.8924              1601.6887
 Red. masses --      2.7496                 5.4342                 5.6593
 Frc consts  --      3.5554                 7.7907                 8.5539
 IR Inten    --      6.7008               260.8966                25.2018

                     25                     26                     27
                      A                      A                      A
 Frequencies --   1692.4293              2144.3361              3181.6457
 Red. masses --      7.2013                 1.0691                 1.0894
 Frc consts  --     12.1530                 2.8963                 6.4972
 IR Inten    --    584.9798                74.0160                 5.9337

                     28                     29                     30
                      A                      A                      A
 Frequencies --   3194.1610              3226.3598              3229.7824
 Red. masses --      1.0909                 1.0943                 1.0949
 Frc consts  --      6.5574                 6.7117                 6.7296
 IR Inten    --      4.3710                 4.2673                 0.2234

 - Thermochemistry -
 -------------------
 Temperature   298.150 Kelvin.  Pressure   1.00000 Atm.
 Atom     1 has atomic number  8 and mass  15.99491

 Molecular mass:    95.03711 amu.
 Principal axes and moments of inertia in atomic units:
                           1         2         3
     Eigenvalues --   311.26102 620.50740 931.76842
           X            0.99997   0.00715   0.00000
           Y           -0.00715   0.99997  -0.00000
           Z           -0.00000   0.00000   1.00000
 This molecule is an asymmetric top.
 Rotational symmetry number  1.
 Rotational temperatures (Kelvin)      0.27827     0.13959     0.09296
 Rotational constants (GHZ):           5.79816     2.90849     1.93690
    1 imaginary frequencies ignored.
 Zero-point vibrational energy     232532.0 (Joules/Mol)
                                   55.57647 (Kcal/Mol)
 Warning -- explicit consideration of   5 degrees of freedom as
           vibrations may cause significant error
 Vibrational temperatures:    267.22   587.27   697.70   712.24   873.05
          (Kelvin)            971.43  1065.58  1107.47  1227.75  1300.60
                             1401.52  1449.82  1453.31  1493.97  1612.56
                             1629.47  1664.97  1824.28  1903.66  2027.63
                             2131.44  2244.33  2304.47  2435.03  3085.22
                             4577.67  4595.68  4642.01  4646.93

 Zero-point correction=                           0.088567 (Hartree/Particle)
 Thermal correction to Energy=                    0.093583
 Thermal correction to Enthalpy=                  0.094527
 Thermal correction to Gibbs Free Energy=         0.059825
 Sum of electronic and zero-point Energies=           -323.290387
 Sum of electronic and thermal Energies=              -323.285371
 Sum of electronic and thermal Enthalpies=            -323.284427
 Sum of electronic and thermal Free Energies=         -323.319129

                     E (Thermal)             CV                S
                      KCal/Mol        Cal/Mol-Kelvin    Cal/Mol-Kelvin
 Total                   58.724             19.101             73.036
 Electronic               0.000              0.000              0.000
 Translational            0.889              2.981             39.566
 Rotational               0.889              2.981             26.690
 Vibrational             56.947             13.139              6.780
 Vibration     1          0.632              1.859              2.270
 Vibration     2          0.773              1.452              0.933
 Vibration     3          0.841              1.283              0.697
 Vibration     4          0.851              1.261              0.671
 Vibration     5          0.966              1.017              0.438

 Optimization completed.
    -- Stationary point found.
 Normal termination of Gaussian 09 at Sat Aug 28 00:56:49 2021.
