 Gaussian 09, Revision E.01,
 Gaussian 09:  EM64L-G09RevE.01 30-Nov-2015

 ---------------------
 #p G3 geom=checkpoint
 ---------------------

 ---------
 HY_H2O_G3
 ---------
 Structure from the checkpoint file:  "HY_H2O_G3.chk"
 Charge =  0 Multiplicity = 1

 SCF Done:  E(RHF) =  -397.588491876     A.U. after   14 cycles
 SCF Done:  E(RHF) =  -397.591541305     A.U. after   12 cycles
 SCF Done:  E(RHF) =  -397.592193830     A.U. after   11 cycles
 SCF Done:  E(RHF) =  -397.592752862     A.U. after   12 cycles
 SCF Done:  E(RHF) =  -397.592906050     A.U. after   11 cycles
 SCF Done:  E(RHF) =  -397.593012579     A.U. after   11 cycles
 SCF Done:  E(RHF) =  -397.593080427     A.U. after   11 cycles
 SCF Done:  E(RHF) =  -397.593102671     A.U. after   10 cycles
 SCF Done:  E(RHF) =  -397.593115591     A.U. after   10 cycles
 SCF Done:  E(RHF) =  -397.593133273     A.U. after   10 cycles
 Optimization completed.
    -- Stationary point found.
 Normal termination of Gaussian 09 at Fri Sep  3 00:22:24 2021.

 -------------------------------------------------------
 #P Geom=AllCheck Guess=TCheck SCRF=Check HF/GTBas1 Freq
 -------------------------------------------------------

 Structure from the checkpoint file:  "HY_H2O_G3.chk"
 ---------
 HY_H2O_G3
 ---------
 Charge =  0 Multiplicity = 1

  Exact polarizability:  77.891   2.534  69.591   0.897  -0.101  26.561
 Approx polarizability:  70.682   2.554  67.681   0.317   0.006  29.092

                      1                      2                      3
                      A                      A                      A
 Frequencies --     63.1184               130.9756               180.0193
 Red. masses --      5.0830                 4.6459                 7.0621
 Frc consts  --      0.0119                 0.0470                 0.1348
 IR Inten    --      4.4794                16.9488                 4.8201
 Raman Activ --      3.9648                 0.1970                 0.0684

                      4                      5                      6
                      A                      A                      A
 Frequencies --    240.5811               274.3008               323.5532
 Red. masses --      3.6686                 1.0680                 1.2261
 Frc consts  --      0.1251                 0.0473                 0.0756
 IR Inten    --      8.0427               128.7433                74.7797
 Raman Activ --      2.7029                 3.6870                 1.1336

                      7                      8                      9
                      A                      A                      A
 Frequencies --    465.5864               492.9238               584.9879
 Red. masses --      3.5733                 4.0050                 2.6149
 Frc consts  --      0.4564                 0.5733                 0.5272
 IR Inten    --      4.6967                47.7825                12.6294
 Raman Activ --      0.5465                 0.1772                 0.1119

                     10                     11                     12
                      A                      A                      A
 Frequencies --    612.0947               670.8262               697.3968
 Red. masses --      5.4694                 1.4350                 3.4773
 Frc consts  --      1.2073                 0.3805                 0.9964
 IR Inten    --     11.8637               218.5205                84.0698
 Raman Activ --      4.9577                 3.2449                 9.0513

                     13                     14                     15
                      A                      A                      A
 Frequencies --    797.7731               840.5919               875.4078
 Red. masses --      1.1630                 1.8107                 1.8339
 Frc consts  --      0.4361                 0.7538                 0.8280
 IR Inten    --    166.2483                19.5476               100.9234
 Raman Activ --      0.7967                 1.5332                 0.3427

                     16                     17                     18
                      A                      A                      A
 Frequencies --    930.6268               969.7652              1085.1264
 Red. masses --      5.8675                 1.4284                 7.2166
 Frc consts  --      2.9940                 0.7915                 5.0066
 IR Inten    --      7.2744                 7.2019                18.8719
 Raman Activ --     14.1001                 1.4716                12.9025

                     19                     20                     21
                      A                      A                      A
 Frequencies --   1104.9950              1128.1032              1141.1274
 Red. masses --      1.3794                 1.3248                 2.0978
 Frc consts  --      0.9923                 0.9934                 1.6094
 IR Inten    --      0.0732                 0.6309                 6.1157
 Raman Activ --      0.8722                 0.7209                 3.2226

                     22                     23                     24
                      A                      A                      A
 Frequencies --   1212.5034              1218.8035              1320.4279
 Red. masses --      1.8643                 1.7686                 1.6594
 Frc consts  --      1.6148                 1.5479                 1.7046
 IR Inten    --     29.0573                28.0585                18.3450
 Raman Activ --     13.6620                 6.8386                 8.3944

                     25                     26                     27
                      A                      A                      A
 Frequencies --   1388.3512              1471.0593              1528.0464
 Red. masses --      1.4420                 3.1019                 1.2440
 Frc consts  --      1.6376                 3.9550                 1.7114
 IR Inten    --    129.3605                65.8805               100.2259
 Raman Activ --      2.7467                10.1487                 2.6999

                     28                     29                     30
                      A                      A                      A
 Frequencies --   1635.2795              1664.8773              1792.8572
 Red. masses --      2.3861                 2.5706                 5.3868
 Frc consts  --      3.7594                 4.1980                10.2017
 IR Inten    --     41.7390               183.4535               169.9694
 Raman Activ --      2.5972                 1.0151                15.5865

                     31                     32                     33
                      A                      A                      A
 Frequencies --   1824.6633              1841.1003              3368.2030
 Red. masses --      3.8668                 1.1539                 1.0889
 Frc consts  --      7.5853                 2.3045                 7.2784
 IR Inten    --    139.8626                95.4459                 9.4026
 Raman Activ --      8.0071                 2.9858                74.4888

                     34                     35                     36
                      A                      A                      A
 Frequencies --   3375.3639              3403.1256              3413.5875
 Red. masses --      1.0924                 1.0972                 1.0969
 Frc consts  --      7.3331                 7.4865                 7.5309
 IR Inten    --     25.3912                21.2739                 2.6274
 Raman Activ --     79.4642               104.1442               146.0202

                     37                     38                     39
                      A                      A                      A
 Frequencies --   3895.1316              3987.9598              4145.6385
 Red. masses --      1.0663                 1.0531                 1.0765
 Frc consts  --      9.5316                 9.8680                10.9006
 IR Inten    --    389.7920               369.5949               142.0202
 Raman Activ --    144.5971                57.6555                49.2729

 - Thermochemistry -
 -------------------
 Temperature   298.150 Kelvin.  Pressure   1.00000 Atm.
 Atom     1 has atomic number  8 and mass  15.99491

 Molecular mass:   113.04768 amu.
 Principal axes and moments of inertia in atomic units:
                           1         2         3
     Eigenvalues --   442.096931318.812011755.93529
           X            0.99992  -0.01120   0.00610
           Y            0.01122   0.99993  -0.00335
           Z           -0.00606   0.00342   0.99998
 This molecule is an asymmetric top.
 Rotational symmetry number  1.
 Warning -- assumption of classical behavior for rotation
           may cause significant error
 Rotational temperatures (Kelvin)      0.19592     0.06568     0.04933
 Rotational constants (GHZ):           4.08223     1.36846     1.02779
 Zero-point vibrational energy     335533.7 (Joules/Mol)
                                   80.19449 (Kcal/Mol)
 Warning -- explicit consideration of  10 degrees of freedom as
           vibrations may cause significant error
 Vibrational temperatures:     90.81   188.44   259.01   346.14   394.66
          (Kelvin)            465.52   669.87   709.21   841.67   880.67
                              965.17  1003.40  1147.82  1209.42  1259.51
                             1338.96  1395.27  1561.25  1589.84  1623.09
                             1641.83  1744.52  1753.58  1899.80  1997.53
                             2116.52  2198.52  2352.80  2395.38  2579.52
                             2625.28  2648.93  4846.09  4856.39  4896.33
                             4911.38  5604.22  5737.78  5964.64

 Zero-point correction=                           0.127798 (Hartree/Particle)
 Thermal correction to Energy=                    0.135552
 Thermal correction to Enthalpy=                  0.136496
 Thermal correction to Gibbs Free Energy=         0.095192
 Sum of electronic and zero-point Energies=           -397.465356
 Sum of electronic and thermal Energies=              -397.457603
 Sum of electronic and thermal Enthalpies=            -397.456659
 Sum of electronic and thermal Free Energies=         -397.497963

                     E (Thermal)             CV                S
                      KCal/Mol        Cal/Mol-Kelvin    Cal/Mol-Kelvin
 Total                   85.060             27.899             86.932
 Electronic               0.000              0.000              0.000
 Translational            0.889              2.981             40.084
 Rotational               0.889              2.981             28.417
 Vibrational             83.282             21.937             18.431
 Vibration     1          0.597              1.972              4.357
 Vibration     2          0.612              1.922              2.932
 Vibration     3          0.629              1.867              2.328
 Vibration     4          0.658              1.778              1.799
 Vibration     5          0.677              1.721              1.569
 Vibration     6          0.708              1.628              1.292
 Vibration     7          0.823              1.326              0.750
 Vibration     8          0.849              1.266              0.676
 Vibration     9          0.942              1.064              0.476
 Vibration    10          0.971              1.006              0.429

 Optimization completed.
    -- Stationary point found.
 Normal termination of Gaussian 09 at Fri Sep  3 00:22:36 2021.

 ------------------------------------------------------------------
 #P Geom=AllCheck Guess=TCheck SCRF=Check MP2(Full)/GTBas1 Opt=RCFC
 ------------------------------------------------------------------

 Structure from the checkpoint file:  "HY_H2O_G3.chk"
 ---------
 HY_H2O_G3
 ---------
 Charge =  0 Multiplicity = 1

 SCF Done:  E(RHF) =  -397.593154324     A.U. after    1 cycles
 E2 =    -0.1185638617D+01 EUMP2 =    -0.39877879294018D+03
 SCF Done:  E(RHF) =  -397.589566333     A.U. after   12 cycles
 E2 =    -0.1193739884D+01 EUMP2 =    -0.39878330621710D+03
 SCF Done:  E(RHF) =  -397.587603592     A.U. after   12 cycles
 E2 =    -0.1196017735D+01 EUMP2 =    -0.39878362132667D+03
 SCF Done:  E(RHF) =  -397.587821672     A.U. after   11 cycles
 E2 =    -0.1195853804D+01 EUMP2 =    -0.39878367547617D+03
 SCF Done:  E(RHF) =  -397.587794397     A.U. after   10 cycles
 E2 =    -0.1195885711D+01 EUMP2 =    -0.39878368010798D+03
 SCF Done:  E(RHF) =  -397.587779053     A.U. after    9 cycles
 E2 =    -0.1195901491D+01 EUMP2 =    -0.39878368054395D+03
 Optimization completed.
    -- Stationary point found.
 Normal termination of Gaussian 09 at Fri Sep  3 00:23:42 2021.

 ------------------------------------------------------------------
 #P Geom=AllCheck Guess=TCheck SCRF=Check QCISD(T,E4T,FrzG3)/GTBas1
 ------------------------------------------------------------------

 Structure from the checkpoint file:  "HY_H2O_G3.chk"
 ---------
 HY_H2O_G3
 ---------
 Charge =  0 Multiplicity = 1

 SCF Done:  E(RHF) =  -397.587779053     A.U. after    1 cycles
 E2 =    -0.1162016332D+01 EUMP2 =    -0.39874979538474D+03
 Normal termination of Gaussian 09 at Fri Sep  3 00:32:26 2021.

 ---------------------------------------------------------
 #P Geom=AllCheck Guess=TCheck SCRF=Check MP4=FrzG3/GTBas2
 ---------------------------------------------------------

 Structure from the checkpoint file:  "HY_H2O_G3.chk"
 ---------
 HY_H2O_G3
 ---------
 Charge =  0 Multiplicity = 1

 SCF Done:  E(RHF) =  -397.602065157     A.U. after   13 cycles
 E2 =    -0.1179112981D+01 EUMP2 =    -0.39878117813856D+03
 Normal termination of Gaussian 09 at Fri Sep  3 00:38:50 2021.

 ---------------------------------------------------------
 #P Geom=AllCheck Guess=TCheck SCRF=Check MP4=FrzG3/GTBas3
 ---------------------------------------------------------

 Structure from the checkpoint file:  "HY_H2O_G3.chk"
 ---------
 HY_H2O_G3
 ---------
 Charge =  0 Multiplicity = 1

 SCF Done:  E(RHF) =  -397.638854399     A.U. after   12 cycles
 E2 =    -0.1407441405D+01 EUMP2 =    -0.39904629580307D+03
 Normal termination of Gaussian 09 at Fri Sep  3 01:23:11 2021.

                         Standard orientation:
 ---------------------------------------------------------------------
 Center     Atomic      Atomic             Coordinates (Angstroms)
 Number     Number       Type             X           Y           Z
 ---------------------------------------------------------------------
      1          8           0        1.239047    1.431395   -0.018948
      2          7           0        0.301265   -0.688744   -0.022082
      3          6           0        0.148569    0.642267   -0.010236
      4          6           0       -1.110405    1.263394    0.014444
      5          6           0       -0.812006   -1.451458   -0.015583
      6          6           0       -2.239371    0.463587    0.023546
      7          6           0       -2.094361   -0.928278    0.007783
      8          1           0        2.046593    0.852242   -0.057846
      9          1           0       -1.164120    2.346725    0.023135
     10          1           0       -0.643879   -2.526040   -0.029419
     11          1           0       -3.227296    0.916371    0.041360
     12          1           0       -2.956132   -1.587465    0.012342
     13          8           0        3.110802   -0.593919   -0.066663
     14          1           0        3.444358   -0.766499    0.828327
     15          1           0        2.238269   -1.050997   -0.098163
 ---------------------------------------------------------------------

 SCF Done:  E(RHF) =  -397.738110256     A.U. after   13 cycles
 E2 =    -0.1828815235D+01 EUMP2 =    -0.39956692549139D+03

 The electronic state is 1-A.
 Alpha  occ. eigenvalues --  -20.58207 -20.56630 -15.57190 -11.34789 -11.28976
 Alpha  occ. eigenvalues --  -11.26844 -11.23901 -11.23764  -1.41422  -1.34910
 Alpha  occ. eigenvalues --   -1.25529  -1.09657  -1.02908  -0.88105  -0.85498
 Alpha  occ. eigenvalues --   -0.74840  -0.72476  -0.69911  -0.66828  -0.62540
 Alpha  occ. eigenvalues --   -0.60892  -0.59706  -0.59252  -0.57018  -0.53635
 Alpha  occ. eigenvalues --   -0.51063  -0.50873  -0.44067  -0.39635  -0.33172
 Alpha virt. eigenvalues --    0.03659   0.04532   0.05118   0.06460   0.07163
 Alpha virt. eigenvalues --    0.08475   0.09504   0.10392   0.11460   0.11907
 Alpha virt. eigenvalues --    0.12437   0.14334   0.14910   0.15703   0.16397

 Mulliken charges:
               1
     1  O   -0.472643
     2  N   -0.542278
     3  C   -0.033939
     4  C    0.307432
     5  C    0.057518
     6  C   -0.159959
     7  C   -0.329807
     8  H    0.420469
     9  H    0.192360
    10  H    0.176078
    11  H    0.192658
    12  H    0.154604
    13  O   -0.622256
    14  H    0.282808
    15  H    0.376955
 Sum of Mulliken charges =  -0.00000

 Dipole moment (field-independent basis, Debye):
    X=             -2.2865    Y=             -1.3604    Z=              1.4186  Tot=              3.0152
 Quadrupole moment (field-independent basis, Debye-Ang):
   XX=            -43.8554   YY=            -45.1883   ZZ=            -49.6663
   XY=             -2.4842   XZ=              5.5264   YZ=             -1.1587

 Normal termination of Gaussian 09 at Fri Sep  3 01:27:47 2021.
