 Gaussian 09, Revision E.01,
 Gaussian 09:  EM64L-G09RevE.01 30-Nov-2015

 -------------------------
 #p opt freq CAM-B3LYP/gen
 -------------------------

 -------------------------
 HY_CAM-B3LYP_PC2_OPT_FREQ
 -------------------------
 Symbolic Z-matrix:
 Charge =  0 Multiplicity = 1

 SCF Done:  E(RCAM-B3LYP) =  -323.500264169     A.U. after   14 cycles
 SCF Done:  E(RCAM-B3LYP) =  -323.500307802     A.U. after    9 cycles
 SCF Done:  E(RCAM-B3LYP) =  -323.500312826     A.U. after    8 cycles
 Optimization completed.
    -- Stationary point found.
 Normal termination of Gaussian 09 at Fri Aug 27 00:10:29 2021.

 ----------------------------------------------------------------------
 #P Geom=AllCheck Guess=TCheck SCRF=Check GenChk RCAM-B3LYP/ChkBas Freq
 ----------------------------------------------------------------------

 Structure from the checkpoint file:  "HY_CAM-B3LYP_PC2_OPT_FREQ.chk"
 -------------------------
 HY_CAM-B3LYP_PC2_OPT_FREQ
 -------------------------
 Charge =  0 Multiplicity = 1

                         Standard orientation:
 ---------------------------------------------------------------------
 Center     Atomic      Atomic             Coordinates (Angstroms)
 Number     Number       Type             X           Y           Z
 ---------------------------------------------------------------------
      1          8           0        0.004413    2.243309    0.000000
      2          7           0       -1.169170    0.293693    0.000000
      3          6           0       -0.000000    0.897526    0.000000
      4          6           0        1.219117    0.225453   -0.000000
      5          6           0       -1.183778   -1.038251    0.000000
      6          6           0        1.184907   -1.148808   -0.000000
      7          6           0       -0.040129   -1.805557   -0.000000
      8          1           0       -0.917090    2.527281    0.000000
      9          1           0        2.142118    0.784007   -0.000000
     10          1           0       -2.162377   -1.501170    0.000000
     11          1           0        2.107889   -1.711738   -0.000000
     12          1           0       -0.102354   -2.882884   -0.000000
 ---------------------------------------------------------------------

 SCF Done:  E(RCAM-B3LYP) =  -323.500312826     A.U. after    1 cycles

 The electronic state is 1-A'.
 Alpha  occ. eigenvalues --  -19.23287 -14.38844 -10.34692 -10.28996 -10.27287
 Alpha  occ. eigenvalues --  -10.25761 -10.25322  -1.16688  -1.03244  -0.89839
 Alpha  occ. eigenvalues --   -0.84568  -0.73215  -0.71240  -0.63467  -0.59644
 Alpha  occ. eigenvalues --   -0.55994  -0.52183  -0.51974  -0.48947  -0.47154
 Alpha  occ. eigenvalues --   -0.44271  -0.43195  -0.35701  -0.34458  -0.30253
 Alpha virt. eigenvalues --    0.00905   0.03662   0.05337   0.06404   0.07426
 Alpha virt. eigenvalues --    0.09498   0.11167   0.17740   0.18427   0.19513
 Alpha virt. eigenvalues --    0.19746   0.20504   0.22547   0.23054   0.24039

 Mulliken charges:
               1
     1  O   -0.384960
     2  N   -0.402580
     3  C    0.479612
     4  C   -0.145321
     5  C    0.120763
     6  C    0.038721
     7  C   -0.143455
     8  H    0.213232
     9  H    0.055830
    10  H    0.060496
    11  H    0.059507
    12  H    0.048154
 Sum of Mulliken charges =  -0.00000

 Dipole moment (field-independent basis, Debye):
    X=              0.5046    Y=             -1.3004    Z=             -0.0000  Tot=              1.3948
 Quadrupole moment (field-independent basis, Debye-Ang):
   XX=            -38.0661   YY=            -37.1093   ZZ=            -43.2965
   XY=             -2.0794   XZ=              0.0000   YZ=             -0.0000

  Exact polarizability:  72.803   0.268  83.284  -0.000  -0.000  37.896
 Approx polarizability:  93.206   0.943 101.990  -0.000   0.000  49.143

                      1                      2                      3
                     A"                     A'                     A"
 Frequencies --    220.4493               427.1425               431.1852
 Red. masses --      4.9554                 4.1859                 3.4364
 Frc consts  --      0.1419                 0.4500                 0.3764
 IR Inten    --      0.9564                17.6241                 0.1067

                      4                      5                      6
                     A"                     A"                     A'
 Frequencies --    501.7288               566.8260               575.6139
 Red. masses --      1.2998                 1.9346                 7.0108
 Frc consts  --      0.1928                 0.3662                 1.3686
 IR Inten    --    104.2764                18.7090                 0.6032

                      7                      8                      9
                     A'                     A"                     A"
 Frequencies --    649.0267               772.0191               815.8733
 Red. masses --      7.0858                 1.7942                 2.1940
 Frc consts  --      1.7586                 0.6301                 0.8605
 IR Inten    --      2.5227                10.8675                60.0091

                     10                     11                     12
                     A'                     A"                     A"
 Frequencies --    877.6185               902.1020              1008.2373
 Red. masses --      5.6790                 1.4023                 1.4036
 Frc consts  --      2.5771                 0.6724                 0.8406
 IR Inten    --     13.2853                 2.4991                 0.4467

                     13                     14                     15
                     A'                     A"                     A'
 Frequencies --   1025.4108              1033.8853              1078.9523
 Red. masses --      6.6886                 1.3308                 1.9829
 Frc consts  --      4.1436                 0.8381                 1.3600
 IR Inten    --      7.7964                 0.0707                 4.0262

                     16                     17                     18
                     A'                     A'                     A'
 Frequencies --   1123.9547              1169.8756              1210.6044
 Red. masses --      1.5873                 1.2270                 1.2917
 Frc consts  --      1.1814                 0.9894                 1.1153
 IR Inten    --     28.2809                39.6940               138.1508

                     19                     20                     21
                     A'                     A'                     A'
 Frequencies --   1312.0963              1348.8511              1379.9517
 Red. masses --      3.8202                 3.5176                 1.3238
 Frc consts  --      3.8750                 3.7707                 1.4852
 IR Inten    --     15.7514                84.3812                19.9864

                     22                     23                     24
                     A'                     A'                     A'
 Frequencies --   1514.2288              1536.7036              1664.4526
 Red. masses --      2.6537                 2.5346                 6.4064
 Frc consts  --      3.5849                 3.5265                10.4570
 IR Inten    --     52.8006               136.3272               104.0688

                     25                     26                     27
                     A'                     A'                     A'
 Frequencies --   1686.2105              3188.6354              3205.2545
 Red. masses --      5.7848                 1.0902                 1.0899
 Frc consts  --      9.6909                 6.5306                 6.5975
 IR Inten    --    102.8146                11.3531                 6.2948

                     28                     29                     30
                     A'                     A'                     A'
 Frequencies --   3231.3550              3237.4141              3811.0859
 Red. masses --      1.0947                 1.0967                 1.0644
 Frc consts  --      6.7344                 6.7721                 9.1084
 IR Inten    --      7.5896                 0.6285                98.7687

 - Thermochemistry -
 -------------------
 Temperature   298.150 Kelvin.  Pressure   1.00000 Atm.
 Atom     1 has atomic number  8 and mass  15.99491

 Molecular mass:    95.03711 amu.
 Principal axes and moments of inertia in atomic units:
                           1         2         3
     Eigenvalues --   304.40524 644.67505 949.08029
           X           -0.02886   0.99958   0.00000
           Y            0.99958   0.02886   0.00000
           Z            0.00000   0.00000   1.00000
 This molecule is an asymmetric top.
 Rotational symmetry number  1.
 Rotational temperatures (Kelvin)      0.28453     0.13435     0.09126
 Rotational constants (GHZ):           5.92875     2.79946     1.90157
 Zero-point vibrational energy     248265.5 (Joules/Mol)
                                   59.33687 (Kcal/Mol)
 Warning -- explicit consideration of   6 degrees of freedom as
           vibrations may cause significant error
 Vibrational temperatures:    317.18   614.56   620.38   721.87   815.54
          (Kelvin)            828.18   933.80  1110.76  1173.86  1262.70
                             1297.92  1450.63  1475.34  1487.53  1552.37
                             1617.12  1683.19  1741.79  1887.81  1940.69
                             1985.44  2178.63  2210.97  2394.77  2426.08
                             4587.73  4611.64  4649.19  4657.91  5483.30

 Zero-point correction=                           0.094559 (Hartree/Particle)
 Thermal correction to Energy=                    0.099697
 Thermal correction to Enthalpy=                  0.100641
 Thermal correction to Gibbs Free Energy=         0.065822
 Sum of electronic and zero-point Energies=           -323.405754
 Sum of electronic and thermal Energies=              -323.400616
 Sum of electronic and thermal Enthalpies=            -323.399672
 Sum of electronic and thermal Free Energies=         -323.434491

                     E (Thermal)             CV                S
                      KCal/Mol        Cal/Mol-Kelvin    Cal/Mol-Kelvin
 Total                   62.561             19.941             73.283
 Electronic               0.000              0.000              0.000
 Translational            0.889              2.981             39.566
 Rotational               0.889              2.981             26.724
 Vibrational             60.783             13.979              6.993
 Vibration     1          0.647              1.810              1.955
 Vibration     2          0.789              1.411              0.868
 Vibration     3          0.792              1.402              0.855
 Vibration     4          0.857              1.246              0.654
 Vibration     5          0.923              1.103              0.510
 Vibration     6          0.932              1.084              0.494

 Optimization completed.
    -- Stationary point found.
 Normal termination of Gaussian 09 at Fri Aug 27 00:11:20 2021.
