 Gaussian 09, Revision E.01,
 Gaussian 09:  EM64L-G09RevE.01 30-Nov-2015

 ----------------------------------------------------
 #p opt=(calcfc,qst3,MaxCycle=200) freq CAM-B3LYP/gen
 ----------------------------------------------------

 -------------------------
 HY_CAM-B3LYP_PC2_OPT_FREQ
 -------------------------
 Symbolic Z-matrix:
 Charge =  0 Multiplicity = 1

 -------------------------
 PY_CAM-B3LYP_PC2_OPT_FREQ
 -------------------------
 Symbolic Z-matrix:
 Charge =  0 Multiplicity = 1

 -----------------
 TST_GAS_CAM-B3LYP
 -----------------
 Symbolic Z-matrix:
 Charge =  0 Multiplicity = 1

 SCF Done:  E(RCAM-B3LYP) =  -323.422129841     A.U. after   15 cycles
 SCF Done:  E(RCAM-B3LYP) =  -323.430287039     A.U. after   13 cycles
 SCF Done:  E(RCAM-B3LYP) =  -323.441825328     A.U. after   14 cycles
 SCF Done:  E(RCAM-B3LYP) =  -323.441416791     A.U. after   13 cycles
 SCF Done:  E(RCAM-B3LYP) =  -323.448643030     A.U. after   14 cycles
 SCF Done:  E(RCAM-B3LYP) =  -323.441762713     A.U. after   14 cycles
 SCF Done:  E(RCAM-B3LYP) =  -323.438837577     A.U. after   14 cycles
 SCF Done:  E(RCAM-B3LYP) =  -323.439798497     A.U. after   13 cycles
 SCF Done:  E(RCAM-B3LYP) =  -323.439532695     A.U. after   13 cycles
 SCF Done:  E(RCAM-B3LYP) =  -323.440020203     A.U. after   12 cycles
 SCF Done:  E(RCAM-B3LYP) =  -323.440037581     A.U. after   10 cycles
 SCF Done:  E(RCAM-B3LYP) =  -323.439798188     A.U. after   12 cycles
 SCF Done:  E(RCAM-B3LYP) =  -323.440032627     A.U. after   12 cycles
 SCF Done:  E(RCAM-B3LYP) =  -323.440037819     A.U. after    9 cycles
 SCF Done:  E(RCAM-B3LYP) =  -323.440038073     A.U. after    9 cycles
 SCF Done:  E(RCAM-B3LYP) =  -323.439170463     A.U. after   13 cycles
 SCF Done:  E(RCAM-B3LYP) =  -323.439948431     A.U. after   13 cycles
 SCF Done:  E(RCAM-B3LYP) =  -323.440034195     A.U. after   11 cycles
 SCF Done:  E(RCAM-B3LYP) =  -323.440038050     A.U. after    9 cycles
 Optimization completed.
    -- Stationary point found.
 Normal termination of Gaussian 09 at Sat Aug 28 00:58:13 2021.

 ----------------------------------------------------------------------
 #P Geom=AllCheck Guess=TCheck SCRF=Check GenChk RCAM-B3LYP/ChkBas Freq
 ----------------------------------------------------------------------

 Structure from the checkpoint file:  "TST_GAS_CAM-B3LYP.chk"
 -------------------------
 HY_CAM-B3LYP_PC2_OPT_FREQ
 -------------------------
 Charge =  0 Multiplicity = 1

                         Standard orientation:
 ---------------------------------------------------------------------
 Center     Atomic      Atomic             Coordinates (Angstroms)
 Number     Number       Type             X           Y           Z
 ---------------------------------------------------------------------
      1          8           0       -2.220217    0.034504    0.000128
      2          7           0       -0.420502   -1.040844   -0.000030
      3          6           0       -0.950034    0.201427   -0.000056
      4          6           0       -0.112706    1.324761   -0.000059
      5          6           0        0.888519   -1.276502   -0.000024
      6          6           0        1.239181    1.082577    0.000006
      7          6           0        1.762655   -0.217632    0.000087
      8          1           0       -1.695655   -1.222731   -0.000387
      9          1           0       -0.525975    2.320381   -0.000144
     10          1           0        1.211496   -2.307381   -0.000128
     11          1           0        1.922746    1.920976   -0.000090
     12          1           0        2.826950   -0.389153    0.000209
 ---------------------------------------------------------------------

 SCF Done:  E(RCAM-B3LYP) =  -323.440038050     A.U. after    1 cycles

 The electronic state is 1-A.
 Alpha  occ. eigenvalues --  -19.18033 -14.42422 -10.35151 -10.31447 -10.28566
 Alpha  occ. eigenvalues --  -10.26453 -10.26189  -1.15272  -1.03045  -0.90895
 Alpha  occ. eigenvalues --   -0.84932  -0.75158  -0.70784  -0.62886  -0.59047
 Alpha  occ. eigenvalues --   -0.55449  -0.52849  -0.52567  -0.50112  -0.46702
 Alpha  occ. eigenvalues --   -0.42119  -0.41860  -0.37428  -0.36554  -0.28967
 Alpha virt. eigenvalues --   -0.00987   0.03649   0.04587   0.06409   0.07724
 Alpha virt. eigenvalues --    0.09921   0.10418   0.16515   0.17212   0.17661
 Alpha virt. eigenvalues --    0.18898   0.19084   0.21390   0.22142   0.23051

 Mulliken charges:
               1
     1  O   -0.525589
     2  N   -0.433214
     3  C    0.511754
     4  C   -0.146710
     5  C    0.163124
     6  C    0.055301
     7  C   -0.159347
     8  H    0.291859
     9  H    0.056915
    10  H    0.067618
    11  H    0.064528
    12  H    0.053761
 Sum of Mulliken charges =  -0.00000

 Dipole moment (field-independent basis, Debye):
    X=              3.5935    Y=             -0.3968    Z=             -0.0008  Tot=              3.6153
 Quadrupole moment (field-independent basis, Debye-Ang):
   XX=            -45.2464   YY=            -34.6164   ZZ=            -43.2856
   XY=              1.0469   XZ=              0.0018   YZ=              0.0006

  Exact polarizability:  87.395  -1.446  73.570   0.001   0.000  37.531
 Approx polarizability: 112.776  -3.140  94.469   0.001   0.001  48.799

 ******    1 imaginary frequencies (negative Signs) ******

                      1                      2                      3
                      A                      A                      A
 Frequencies --  -1927.2791               194.9227               420.6380
 Red. masses --      1.0717                 6.7093                 3.3454
 Frc consts  --      2.3454                 0.1502                 0.3488
 IR Inten    --    592.4482                 0.0439                 2.0859

                      4                      5                      6
                      A                      A                      A
 Frequencies --    500.0168               504.3193               617.6126
 Red. masses --      2.4240                 7.0685                 7.1289
 Frc consts  --      0.3571                 1.0592                 1.6022
 IR Inten    --     18.8154                 4.4148                 2.7839

                      7                      8                      9
                      A                      A                      A
 Frequencies --    682.5258               753.7872               786.4919
 Red. masses --      6.9854                 2.5107                 1.4999
 Frc consts  --      1.9172                 0.8405                 0.5467
 IR Inten    --      0.1228                 8.7580                57.1478

                     10                     11                     12
                      A                      A                      A
 Frequencies --    875.8360               913.3142               996.5949
 Red. masses --      1.3712                 5.7177                 1.3743
 Frc consts  --      0.6197                 2.8100                 0.8042
 IR Inten    --      2.1547                 7.6201                 1.3863

                     13                     14                     15
                      A                      A                      A
 Frequencies --   1029.7096              1031.0760              1053.8174
 Red. masses --      1.3192                 5.5838                 2.0666
 Frc consts  --      0.8241                 3.4975                 1.3522
 IR Inten    --      0.2508                16.0116                 5.4773

                     16                     17                     18
                      A                      A                      A
 Frequencies --   1137.5177              1155.0981              1182.7908
 Red. masses --      1.2000                 1.4066                 1.1533
 Frc consts  --      0.9148                 1.1058                 0.9506
 IR Inten    --     67.3274                 6.5842                20.5081

                     19                     20                     21
                      A                      A                      A
 Frequencies --   1284.8752              1338.3253              1427.1386
 Red. masses --      3.2128                 1.8676                 2.4531
 Frc consts  --      3.1251                 1.9708                 2.9437
 IR Inten    --      5.9424                33.8546                20.6990

                     22                     23                     24
                      A                      A                      A
 Frequencies --   1509.7563              1562.4787              1626.2051
 Red. masses --      2.4877                 4.5072                 5.5933
 Frc consts  --      3.3408                 6.4831                 8.7150
 IR Inten    --      4.4210               374.5807                43.7963

                     25                     26                     27
                      A                      A                      A
 Frequencies --   1697.1462              2155.4078              3201.5698
 Red. masses --      6.3744                 1.0720                 1.0900
 Frc consts  --     10.8176                 2.9343                 6.5827
 IR Inten    --    451.6252                69.1385                 5.9075

                     28                     29                     30
                      A                      A                      A
 Frequencies --   3221.2373              3244.0747              3247.5442
 Red. masses --      1.0911                 1.0953                 1.0960
 Frc consts  --      6.6705                 6.7918                 6.8103
 IR Inten    --      2.1731                 2.9529                 0.0489

 - Thermochemistry -
 -------------------
 Temperature   298.150 Kelvin.  Pressure   1.00000 Atm.
 Atom     1 has atomic number  8 and mass  15.99491

 Molecular mass:    95.03711 amu.
 Principal axes and moments of inertia in atomic units:
                           1         2         3
     Eigenvalues --   310.98959 620.59615 931.58574
           X            0.99997   0.00757   0.00001
           Y           -0.00757   0.99997   0.00000
           Z           -0.00001  -0.00000   1.00000
 This molecule is an asymmetric top.
 Rotational symmetry number  1.
 Rotational temperatures (Kelvin)      0.27851     0.13957     0.09297
 Rotational constants (GHZ):           5.80322     2.90808     1.93728
    1 imaginary frequencies ignored.
 Zero-point vibrational energy     235376.2 (Joules/Mol)
                                   56.25626 (Kcal/Mol)
 Warning -- explicit consideration of   5 degrees of freedom as
           vibrations may cause significant error
 Vibrational temperatures:    280.45   605.20   719.41   725.60   888.61
          (Kelvin)            982.00  1084.53  1131.59  1260.13  1314.05
                             1433.88  1481.52  1483.49  1516.21  1636.63
                             1661.93  1701.77  1848.65  1925.55  2053.33
                             2172.20  2248.06  2339.74  2441.81  3101.15
                             4606.34  4634.64  4667.49  4672.49

 Zero-point correction=                           0.089650 (Hartree/Particle)
 Thermal correction to Energy=                    0.094576
 Thermal correction to Enthalpy=                  0.095521
 Thermal correction to Gibbs Free Energy=         0.060971
 Sum of electronic and zero-point Energies=           -323.350388
 Sum of electronic and thermal Energies=              -323.345462
 Sum of electronic and thermal Enthalpies=            -323.344517
 Sum of electronic and thermal Free Energies=         -323.379067

                     E (Thermal)             CV                S
                      KCal/Mol        Cal/Mol-Kelvin    Cal/Mol-Kelvin
 Total                   59.348             18.703             72.716
 Electronic               0.000              0.000              0.000
 Translational            0.889              2.981             39.566
 Rotational               0.889              2.981             26.689
 Vibrational             57.570             12.741              6.461
 Vibration     1          0.636              1.847              2.181
 Vibration     2          0.783              1.425              0.890
 Vibration     3          0.855              1.250              0.658
 Vibration     4          0.860              1.240              0.647
 Vibration     5          0.977              0.995              0.420

 Optimization completed.
    -- Stationary point found.
 Normal termination of Gaussian 09 at Sat Aug 28 00:59:03 2021.
