 Gaussian 09, Revision E.01,
 Gaussian 09:  EM64L-G09RevE.01 30-Nov-2015

 --------------------
 #p opt freq BP86/gen
 --------------------

 ------------------------
 PY_H2O_BP86_PC2_OPT_FREQ
 ------------------------
 Symbolic Z-matrix:
 Charge =  0 Multiplicity = 1

 SCF Done:  E(RB-P86) =  -400.146970484     A.U. after   17 cycles
 SCF Done:  E(RB-P86) =  -400.148068640     A.U. after   12 cycles
 SCF Done:  E(RB-P86) =  -400.148150570     A.U. after   11 cycles
 SCF Done:  E(RB-P86) =  -400.148268516     A.U. after   11 cycles
 SCF Done:  E(RB-P86) =  -400.148304494     A.U. after   11 cycles
 SCF Done:  E(RB-P86) =  -400.148311378     A.U. after    8 cycles
 SCF Done:  E(RB-P86) =  -400.148314706     A.U. after    8 cycles
 SCF Done:  E(RB-P86) =  -400.148321805     A.U. after    8 cycles
 SCF Done:  E(RB-P86) =  -400.148329527     A.U. after   10 cycles
 SCF Done:  E(RB-P86) =  -400.148333916     A.U. after    9 cycles
 SCF Done:  E(RB-P86) =  -400.148334353     A.U. after    8 cycles
 SCF Done:  E(RB-P86) =  -400.148334631     A.U. after    7 cycles
 Optimization completed.
    -- Stationary point found.
 Normal termination of Gaussian 09 at Fri Aug 27 00:14:55 2021.

 -----------------------------------------------------------------
 #P Geom=AllCheck Guess=TCheck SCRF=Check GenChk RBP86/ChkBas Freq
 -----------------------------------------------------------------

 Structure from the checkpoint file:  "PY_H2O_BP86_PC2_OPT_FREQ.chk"
 ------------------------
 PY_H2O_BP86_PC2_OPT_FREQ
 ------------------------
 Charge =  0 Multiplicity = 1

                         Standard orientation:
 ---------------------------------------------------------------------
 Center     Atomic      Atomic             Coordinates (Angstroms)
 Number     Number       Type             X           Y           Z
 ---------------------------------------------------------------------
      1          8           0        1.290723    1.397749    0.001893
      2          7           0        0.263227   -0.662987    0.008191
      3          6           0        0.225293    0.743900    0.004666
      4          6           0       -1.106732    1.297528    0.002797
      5          6           0       -0.833313   -1.466306    0.004655
      6          6           0       -2.215964    0.486885   -0.000364
      7          6           0       -2.095204   -0.928433   -0.000237
      8          1           0        2.641417    0.273110   -0.048827
      9          1           0       -1.184755    2.383506    0.001189
     10          1           0       -0.639594   -2.538507    0.004087
     11          1           0       -3.210486    0.937333   -0.003947
     12          1           0       -2.967953   -1.576779   -0.004594
     13          8           0        3.052023   -0.637474   -0.091056
     14          1           0        3.710215   -0.664485    0.619804
     15          1           0        1.222127   -1.056914    0.019151
 ---------------------------------------------------------------------

 SCF Done:  E(RB-P86) =  -400.148334631     A.U. after    1 cycles

 The electronic state is 1-A.
 Alpha  occ. eigenvalues --  -18.76038 -18.74106 -14.06198 -10.00402  -9.96880
 Alpha  occ. eigenvalues --   -9.93469  -9.92068  -9.91770  -0.95710  -0.91113
 Alpha  occ. eigenvalues --   -0.88341  -0.75530  -0.69874  -0.60339  -0.58610
 Alpha  occ. eigenvalues --   -0.51693  -0.47839  -0.46232  -0.43972  -0.42420
 Alpha  occ. eigenvalues --   -0.40518  -0.39312  -0.35562  -0.34692  -0.32957
 Alpha  occ. eigenvalues --   -0.31877  -0.28857  -0.26349  -0.22925  -0.21079
 Alpha virt. eigenvalues --   -0.08854  -0.04263  -0.00237   0.01248   0.02821
 Alpha virt. eigenvalues --    0.04534   0.06481   0.06961   0.08457   0.09995
 Alpha virt. eigenvalues --    0.11782   0.13274   0.14173   0.15274   0.16303

 Mulliken charges:
               1
     1  O   -0.510301
     2  N   -0.242838
     3  C    0.426674
     4  C   -0.133496
     5  C    0.139442
     6  C    0.016308
     7  C   -0.138071
     8  H    0.237710
     9  H    0.070901
    10  H    0.078006
    11  H    0.068444
    12  H    0.061471
    13  O   -0.471222
    14  H    0.216937
    15  H    0.180035
 Sum of Mulliken charges =  -0.00000

 Dipole moment (field-independent basis, Debye):
    X=             -2.5131    Y=             -2.1468    Z=              1.2123  Tot=              3.5206
 Quadrupole moment (field-independent basis, Debye-Ang):
   XX=            -42.9081   YY=            -45.8265   ZZ=            -49.7271
   XY=             -2.2118   XZ=              5.0360   YZ=             -0.9996

  Exact polarizability: 107.112   5.661  88.127   1.107  -0.318  45.500
 Approx polarizability: 201.956  23.590 185.092   1.893  -0.422  74.973

                      1                      2                      3
                      A                      A                      A
 Frequencies --     73.1408               156.9349               174.0657
 Red. masses --      4.7649                 5.9565                 5.0635
 Frc consts  --      0.0150                 0.0864                 0.0904
 IR Inten    --      2.8062                24.3398                 1.6528

                      4                      5                      6
                      A                      A                      A
 Frequencies --    206.7403               262.8340               384.4724
 Red. masses --      5.4209                 1.1397                 3.4016
 Frc consts  --      0.1365                 0.0464                 0.2963
 IR Inten    --      4.9824               111.9588                 1.5380

                      7                      8                      9
                      A                      A                      A
 Frequencies --    459.8743               477.2139               497.3058
 Red. masses --      1.1225                 5.9128                 2.4067
 Frc consts  --      0.1399                 0.7934                 0.3507
 IR Inten    --    104.8785                18.8109                23.2949

                     10                     11                     12
                      A                      A                      A
 Frequencies --    540.2878               606.5971               711.7134
 Red. masses --      7.8657                 6.6886                 2.2096
 Frc consts  --      1.3528                 1.4501                 0.6594
 IR Inten    --      8.7664                 0.2774                17.9043

                     13                     14                     15
                      A                      A                      A
 Frequencies --    747.6484               810.3571               822.0887
 Red. masses --      1.6887                 3.2363                 1.2277
 Frc consts  --      0.5562                 1.2521                 0.4889
 IR Inten    --     45.9076                47.8745               190.6605

                     16                     17                     18
                      A                      A                      A
 Frequencies --    830.7738               879.0993               930.1049
 Red. masses --      1.5226                 1.2825                 1.1759
 Frc consts  --      0.6192                 0.5839                 0.5993
 IR Inten    --     14.6662                74.6259                19.4283

                     19                     20                     21
                      A                      A                      A
 Frequencies --    964.4839               975.9405              1007.5572
 Red. masses --      1.2867                 5.2605                 2.4492
 Frc consts  --      0.7052                 2.9521                 1.4649
 IR Inten    --      0.0270                23.9567                 2.4240

                     22                     23                     24
                      A                      A                      A
 Frequencies --   1094.0523              1134.9604              1204.1041
 Red. masses --      1.6062                 1.1523                 1.7261
 Frc consts  --      1.1327                 0.8746                 1.4745
 IR Inten    --      6.7710                14.2415                 0.1480

                     25                     26                     27
                      A                      A                      A
 Frequencies --   1235.8067              1355.8854              1423.7396
 Red. masses --      1.9373                 1.5669                 2.0401
 Frc consts  --      1.7432                 1.6972                 2.4365
 IR Inten    --     24.5620                 4.2094                18.6096

                     28                     29                     30
                      A                      A                      A
 Frequencies --   1457.6406              1533.5515              1590.5894
 Red. masses --      2.6206                 5.4074                 1.7517
 Frc consts  --      3.2806                 7.4927                 2.6112
 IR Inten    --      9.8519                22.6566               258.9127

                     31                     32                     33
                      A                      A                      A
 Frequencies --   1609.8663              1674.5984              3094.8596
 Red. masses --      1.8501                 2.9986                 1.0886
 Frc consts  --      2.8251                 4.9543                 6.1432
 IR Inten    --     89.1336               415.9345                11.5693

                     34                     35                     36
                      A                      A                      A
 Frequencies --   3123.1731              3137.1058              3144.1097
 Red. masses --      1.0902                 1.0928                 1.0782
 Frc consts  --      6.2655                 6.3364                 6.2800
 IR Inten    --      1.7634                 1.4092                28.5948

                     37                     38                     39
                      A                      A                      A
 Frequencies --   3151.2159              3229.9018              3759.1572
 Red. masses --      1.0960                 1.0722                 1.0665
 Frc consts  --      6.4121                 6.5903                 8.8795
 IR Inten    --      2.7511              1311.7144                49.1943

 - Thermochemistry -
 -------------------
 Temperature   298.150 Kelvin.  Pressure   1.00000 Atm.
 Atom     1 has atomic number  8 and mass  15.99491

 Molecular mass:   113.04768 amu.
 Principal axes and moments of inertia in atomic units:
                           1         2         3
     Eigenvalues --   455.061251270.945991722.39422
           X            0.99992  -0.01107   0.00621
           Y            0.01109   0.99993  -0.00374
           Z           -0.00617   0.00381   0.99997
 This molecule is an asymmetric top.
 Rotational symmetry number  1.
 Warning -- assumption of classical behavior for rotation
           may cause significant error
 Rotational temperatures (Kelvin)      0.19033     0.06815     0.05029
 Rotational constants (GHZ):           3.96593     1.42000     1.04781
 Zero-point vibrational energy     301898.9 (Joules/Mol)
                                   72.15556 (Kcal/Mol)
 Warning -- explicit consideration of  11 degrees of freedom as
           vibrations may cause significant error
 Vibrational temperatures:    105.23   225.79   250.44   297.45   378.16
          (Kelvin)            553.17   661.66   686.60   715.51   777.35
                              872.76  1024.00  1075.70  1165.92  1182.80
                             1195.30  1264.83  1338.21  1387.68  1404.16
                             1449.65  1574.10  1632.95  1732.44  1778.05
                             1950.81  2048.44  2097.22  2206.44  2288.50
                             2316.24  2409.37  4452.81  4493.54  4513.59
                             4523.67  4533.89  4647.10  5408.58

 Zero-point correction=                           0.114987 (Hartree/Particle)
 Thermal correction to Energy=                    0.123019
 Thermal correction to Enthalpy=                  0.123963
 Thermal correction to Gibbs Free Energy=         0.082445
 Sum of electronic and zero-point Energies=           -400.033347
 Sum of electronic and thermal Energies=              -400.025316
 Sum of electronic and thermal Enthalpies=            -400.024372
 Sum of electronic and thermal Free Energies=         -400.065889

                     E (Thermal)             CV                S
                      KCal/Mol        Cal/Mol-Kelvin    Cal/Mol-Kelvin
 Total                   77.195             29.866             87.381
 Electronic               0.000              0.000              0.000
 Translational            0.889              2.981             40.084
 Rotational               0.889              2.981             28.390
 Vibrational             75.418             23.905             18.908
 Vibration     1          0.599              1.967              4.067
 Vibration     2          0.621              1.895              2.586
 Vibration     3          0.627              1.874              2.391
 Vibration     4          0.641              1.830              2.072
 Vibration     5          0.670              1.741              1.643
 Vibration     6          0.753              1.503              1.022
 Vibration     7          0.818              1.339              0.766
 Vibration     8          0.834              1.301              0.718
 Vibration     9          0.853              1.256              0.665
 Vibration    10          0.895              1.161              0.565
 Vibration    11          0.965              1.018              0.438

 Normal termination of Gaussian 09 at Fri Aug 27 00:15:59 2021.
