 Gaussian 09, Revision E.01,
 Gaussian 09:  EM64L-G09RevE.01 30-Nov-2015

 -----------------------------------------------------------------
 #p opt=(calcfc,qst3,maxcycle=200) freq gen geom=connectivity bp86
 -----------------------------------------------------------------

 ------------------------
 HY_H2O_BP86_PC2_OPT_FREQ
 ------------------------
 Symbolic Z-matrix:
 Charge =  0 Multiplicity = 1

 ------------------------
 PY_H2O_BP86_PC2_OPT_FREQ
 ------------------------
 Symbolic Z-matrix:
 Charge =  0 Multiplicity = 1

 ------------
 TST_H2O_BP86
 ------------
 Symbolic Z-matrix:
 Charge =  0 Multiplicity = 1

 SCF Done:  E(RB-P86) =  -400.115393124     A.U. after   16 cycles
 SCF Done:  E(RB-P86) =  -400.114425912     A.U. after   13 cycles
 SCF Done:  E(RB-P86) =  -400.113254345     A.U. after   14 cycles
 SCF Done:  E(RB-P86) =  -400.111585900     A.U. after   13 cycles
 SCF Done:  E(RB-P86) =  -400.109978319     A.U. after   14 cycles
 SCF Done:  E(RB-P86) =  -400.113406016     A.U. after   13 cycles
 SCF Done:  E(RB-P86) =  -400.113653756     A.U. after   13 cycles
 SCF Done:  E(RB-P86) =  -400.116659257     A.U. after   13 cycles
 SCF Done:  E(RB-P86) =  -400.123224940     A.U. after   14 cycles
 SCF Done:  E(RB-P86) =  -400.129774236     A.U. after   13 cycles
 SCF Done:  E(RB-P86) =  -400.131495931     A.U. after   13 cycles
 SCF Done:  E(RB-P86) =  -400.131449344     A.U. after   14 cycles
 SCF Done:  E(RB-P86) =  -400.132041580     A.U. after   12 cycles
 SCF Done:  E(RB-P86) =  -400.132163050     A.U. after   11 cycles
 SCF Done:  E(RB-P86) =  -400.132195924     A.U. after   11 cycles
 SCF Done:  E(RB-P86) =  -400.132210842     A.U. after   11 cycles
 SCF Done:  E(RB-P86) =  -400.132213565     A.U. after    9 cycles
 SCF Done:  E(RB-P86) =  -400.132214196     A.U. after    8 cycles
 SCF Done:  E(RB-P86) =  -400.132214188     A.U. after    7 cycles
 Optimization completed.
    -- Stationary point found.
 Normal termination of Gaussian 09 at Sun Aug 29 00:09:18 2021.

 -----------------------------------------------------------------
 #P Geom=AllCheck Guess=TCheck SCRF=Check GenChk RBP86/ChkBas Freq
 -----------------------------------------------------------------

 Structure from the checkpoint file:  "TST_H2O_BP86.chk"
 ------------------------
 HY_H2O_BP86_PC2_OPT_FREQ
 ------------------------
 Charge =  0 Multiplicity = 1

                         Standard orientation:
 ---------------------------------------------------------------------
 Center     Atomic      Atomic             Coordinates (Angstroms)
 Number     Number       Type             X           Y           Z
 ---------------------------------------------------------------------
      1          8           0        1.386850    1.336999   -0.012286
      2          7           0        0.316544   -0.690939   -0.012957
      3          6           0        0.263017    0.682098   -0.004417
      4          6           0       -1.008866    1.314518    0.010956
      5          6           0       -0.804220   -1.440949   -0.009043
      6          6           0       -2.151489    0.536718    0.014839
      7          6           0       -2.063813   -0.870994    0.004763
      8          1           0        2.246790    0.488557   -0.024087
      9          1           0       -1.045512    2.402593    0.016917
     10          1           0       -0.655109   -2.521841   -0.020654
     11          1           0       -3.130876    1.018178    0.024839
     12          1           0       -2.953100   -1.498007    0.005699
     13          8           0        2.754206   -0.653832   -0.080487
     14          1           0        3.239199   -0.852977    0.736279
     15          1           0        1.546575   -0.993610   -0.008696
 ---------------------------------------------------------------------

 SCF Done:  E(RB-P86) =  -400.132214188     A.U. after    1 cycles

 The electronic state is 1-A.
 Alpha  occ. eigenvalues --  -18.76508 -18.75528 -14.03714 -10.00477  -9.96147
 Alpha  occ. eigenvalues --   -9.93483  -9.91945  -9.91930  -0.97262  -0.89439
 Alpha  occ. eigenvalues --   -0.87408  -0.74972  -0.69779  -0.60247  -0.57763
 Alpha  occ. eigenvalues --   -0.50612  -0.49396  -0.45464  -0.43430  -0.41716
 Alpha  occ. eigenvalues --   -0.40532  -0.39137  -0.35785  -0.35285  -0.32142
 Alpha  occ. eigenvalues --   -0.31412  -0.28380  -0.26403  -0.24060  -0.21655
 Alpha virt. eigenvalues --   -0.08471  -0.04836   0.00108   0.01424   0.03051
 Alpha virt. eigenvalues --    0.04898   0.06481   0.07152   0.08960   0.10908
 Alpha virt. eigenvalues --    0.12314   0.13518   0.14320   0.16039   0.16298

 Mulliken charges:
               1
     1  O   -0.469971
     2  N   -0.367028
     3  C    0.457891
     4  C   -0.131680
     5  C    0.135403
     6  C    0.025941
     7  C   -0.140156
     8  H    0.268323
     9  H    0.069825
    10  H    0.073063
    11  H    0.068539
    12  H    0.059781
    13  O   -0.522127
    14  H    0.213042
    15  H    0.259154
 Sum of Mulliken charges =   0.00000

 Dipole moment (field-independent basis, Debye):
    X=             -2.6501    Y=             -1.5815    Z=              1.3737  Tot=              3.3780
 Quadrupole moment (field-independent basis, Debye-Ang):
   XX=            -45.1113   YY=            -45.3680   ZZ=            -49.3165
   XY=             -2.4102   XZ=              4.9473   YZ=             -1.3209

  Exact polarizability: 110.270   2.308  87.881   1.145  -0.278  45.344
 Approx polarizability: 206.019  16.222 183.355   1.100  -0.364  75.748

 ******    1 imaginary frequencies (negative Signs) ******

                      1                      2                      3
                      A                      A                      A
 Frequencies --  -1322.6538               105.7074               199.3854
 Red. masses --      1.0600                 5.2454                 5.1188
 Frc consts  --      1.0926                 0.0345                 0.1199
 IR Inten    --    234.7025                 2.8990                 1.5712

                      4                      5                      6
                      A                      A                      A
 Frequencies --    322.6245               396.8697               445.6791
 Red. masses --      5.4352                 3.3034                 4.8912
 Frc consts  --      0.3333                 0.3066                 0.5724
 IR Inten    --      6.8667                 3.9917                25.6276

                      7                      8                      9
                      A                      A                      A
 Frequencies --    496.3887               524.8731               561.2228
 Red. masses --      1.4978                 1.8778                 5.3393
 Frc consts  --      0.2175                 0.3048                 0.9908
 IR Inten    --     11.5141                17.9035                16.6055

                     10                     11                     12
                      A                      A                      A
 Frequencies --    592.1219               636.9998               690.4601
 Red. masses --      1.3194                 4.8269                 7.4082
 Frc consts  --      0.2725                 1.1540                 2.0808
 IR Inten    --     51.8400                10.8467                47.9267

                     13                     14                     15
                      A                      A                      A
 Frequencies --    725.3008               760.9657               840.3843
 Red. masses --      1.9519                 1.9666                 5.6324
 Frc consts  --      0.6050                 0.6709                 2.3437
 IR Inten    --     21.2715                42.1335                10.2911

                     16                     17                     18
                      A                      A                      A
 Frequencies --    840.8180               924.4590               962.8918
 Red. masses --      1.4996                 1.3660                 1.2883
 Frc consts  --      0.6246                 0.6878                 0.7037
 IR Inten    --      5.0107                 1.5410                 0.0786

                     19                     20                     21
                      A                      A                      A
 Frequencies --    982.6974              1024.7589              1108.2848
 Red. masses --      4.1724                 2.2941                 1.4808
 Frc consts  --      2.3740                 1.4194                 1.0716
 IR Inten    --    297.1025                 4.3918                34.6992

                     22                     23                     24
                      A                      A                      A
 Frequencies --   1141.9091              1248.5088              1287.3441
 Red. masses --      1.0887                 2.1349                 1.8679
 Frc consts  --      0.8364                 1.9607                 1.8239
 IR Inten    --     10.6099               100.5078               373.8424

                     25                     26                     27
                      A                      A                      A
 Frequencies --   1321.5288              1345.3372              1359.2744
 Red. masses --      1.2920                 1.2473                 1.8444
 Frc consts  --      1.3294                 1.3301                 2.0078
 IR Inten    --   3107.0265              1110.9881               722.7405

                     28                     29                     30
                      A                      A                      A
 Frequencies --   1404.1810              1445.5299              1502.5632
 Red. masses --      1.0809                 2.5261                 2.8904
 Frc consts  --      1.2557                 3.1099                 3.8447
 IR Inten    --    150.6951                50.7483               174.7794

                     31                     32                     33
                      A                      A                      A
 Frequencies --   1527.1255              1616.2961              1626.3202
 Red. masses --      4.0068                 1.3251                 4.9387
 Frc consts  --      5.5055                 2.0395                 7.6961
 IR Inten    --     36.3987               150.4083               208.2877

                     34                     35                     36
                      A                      A                      A
 Frequencies --   1874.9144              3099.1125              3103.7991
 Red. masses --      1.0568                 1.0877                 1.0906
 Frc consts  --      2.1889                 6.1552                 6.1903
 IR Inten    --      2.8667                 5.9827                 8.8380

                     37                     38                     39
                      A                      A                      A
 Frequencies --   3135.9064              3140.9183              3731.7390
 Red. masses --      1.0923                 1.0960                 1.0658
 Frc consts  --      6.3289                 6.3702                 8.7444
 IR Inten    --      4.0958                 4.3202                28.6779

 - Thermochemistry -
 -------------------
 Temperature   298.150 Kelvin.  Pressure   1.00000 Atm.
 Atom     1 has atomic number  8 and mass  15.99491

 Molecular mass:   113.04768 amu.
 Principal axes and moments of inertia in atomic units:
                           1         2         3
     Eigenvalues --   442.746891142.483251580.65837
           X            0.99988  -0.01419   0.00693
           Y            0.01422   0.99989  -0.00447
           Z           -0.00687   0.00457   0.99997
 This molecule is an asymmetric top.
 Rotational symmetry number  1.
 Warning -- assumption of classical behavior for rotation
           may cause significant error
 Rotational temperatures (Kelvin)      0.19563     0.07581     0.05480
 Rotational constants (GHZ):           4.07624     1.57967     1.14177
    1 imaginary frequencies ignored.
 Zero-point vibrational energy     287433.9 (Joules/Mol)
                                   68.69836 (Kcal/Mol)
 Warning -- explicit consideration of   9 degrees of freedom as
           vibrations may cause significant error
 Vibrational temperatures:    152.09   286.87   464.18   571.01   641.23
          (Kelvin)            714.19   755.17   807.47   851.93   916.50
                              993.42  1043.54  1094.86  1209.12  1209.75
                             1330.09  1385.38  1413.88  1474.40  1594.57
                             1642.95  1796.32  1852.20  1901.38  1935.64
                             1955.69  2020.30  2079.79  2161.85  2197.19
                             2325.49  2339.91  2697.58  4458.93  4465.67
                             4511.86  4519.08  5369.13

 Zero-point correction=                           0.109478 (Hartree/Particle)
 Thermal correction to Energy=                    0.116227
 Thermal correction to Enthalpy=                  0.117172
 Thermal correction to Gibbs Free Energy=         0.078502
 Sum of electronic and zero-point Energies=           -400.022736
 Sum of electronic and thermal Energies=              -400.015987
 Sum of electronic and thermal Enthalpies=            -400.015043
 Sum of electronic and thermal Free Energies=         -400.053712

                     E (Thermal)             CV                S
                      KCal/Mol        Cal/Mol-Kelvin    Cal/Mol-Kelvin
 Total                   72.934             26.638             81.386
 Electronic               0.000              0.000              0.000
 Translational            0.889              2.981             40.084
 Rotational               0.889              2.981             28.171
 Vibrational             71.156             20.677             13.131
 Vibration     1          0.605              1.945              3.346
 Vibration     2          0.638              1.841              2.139
 Vibration     3          0.708              1.630              1.297
 Vibration     4          0.763              1.477              0.974
 Vibration     5          0.805              1.370              0.809
 Vibration     6          0.852              1.258              0.667
 Vibration     7          0.880              1.195              0.599
 Vibration     8          0.917              1.115              0.521
 Vibration     9          0.950              1.049              0.463

 Optimization completed.
    -- Stationary point found.
 Normal termination of Gaussian 09 at Sun Aug 29 00:10:20 2021.
