 Gaussian 09, Revision E.01,
 Gaussian 09:  EM64L-G09RevE.01 30-Nov-2015

 --------------------
 #p opt freq BLYP/gen
 --------------------

 --------------------
 HY_BLYP_PC2_OPT_FREQ
 --------------------
 Symbolic Z-matrix:
 Charge =  0 Multiplicity = 1

 SCF Done:  E(RB-LYP) =  -323.555810422     A.U. after   15 cycles
 SCF Done:  E(RB-LYP) =  -323.558135606     A.U. after   12 cycles
 SCF Done:  E(RB-LYP) =  -323.558215404     A.U. after   11 cycles
 SCF Done:  E(RB-LYP) =  -323.558223707     A.U. after    8 cycles
 Optimization completed.
    -- Stationary point found.
 Normal termination of Gaussian 09 at Fri Aug 27 00:02:39 2021.

 -----------------------------------------------------------------
 #P Geom=AllCheck Guess=TCheck SCRF=Check GenChk RBLYP/ChkBas Freq
 -----------------------------------------------------------------

 Structure from the checkpoint file:  "HY_BLYP_PC2_OPT_FREQ.chk"
 --------------------
 HY_BLYP_PC2_OPT_FREQ
 --------------------
 Charge =  0 Multiplicity = 1

                         Standard orientation:
 ---------------------------------------------------------------------
 Center     Atomic      Atomic             Coordinates (Angstroms)
 Number     Number       Type             X           Y           Z
 ---------------------------------------------------------------------
      1          8           0        0.002592    2.273933    0.000000
      2          7           0       -1.187987    0.295630   -0.000000
      3          6           0        0.000000    0.906680    0.000000
      4          6           0        1.233593    0.229420    0.000000
      5          6           0       -1.196564   -1.053603   -0.000000
      6          6           0        1.200943   -1.161789    0.000000
      7          6           0       -0.035918   -1.826685   -0.000000
      8          1           0       -0.936387    2.545225    0.000000
      9          1           0        2.164480    0.789417    0.000000
     10          1           0       -2.181172   -1.521264   -0.000000
     11          1           0        2.131115   -1.726571    0.000000
     12          1           0       -0.095182   -2.911817   -0.000000
 ---------------------------------------------------------------------

 SCF Done:  E(RB-LYP) =  -323.558223707     A.U. after    2 cycles

 The electronic state is 1-A'.
 Alpha  occ. eigenvalues --  -18.80849 -14.00714 -10.00543  -9.95131  -9.93432
 Alpha  occ. eigenvalues --   -9.92392  -9.91919  -0.97841  -0.85034  -0.72834
 Alpha  occ. eigenvalues --   -0.68194  -0.58212  -0.56543  -0.49674  -0.46056
 Alpha  occ. eigenvalues --   -0.43076  -0.39836  -0.38537  -0.36483  -0.35253
 Alpha  occ. eigenvalues --   -0.32556  -0.30992  -0.26009  -0.23253  -0.21316
 Alpha virt. eigenvalues --   -0.06311  -0.03841   0.00203   0.00819   0.02735
 Alpha virt. eigenvalues --    0.04707   0.06429   0.08797   0.11265   0.13250
 Alpha virt. eigenvalues --    0.13735   0.14460   0.15625   0.17183   0.17782

 Mulliken charges:
               1
     1  O   -0.357479
     2  N   -0.372289
     3  C    0.438944
     4  C   -0.127385
     5  C    0.079569
     6  C    0.020439
     7  C   -0.111688
     8  H    0.201288
     9  H    0.055808
    10  H    0.063715
    11  H    0.058867
    12  H    0.050210
 Sum of Mulliken charges =  -0.00000

 Dipole moment (field-independent basis, Debye):
    X=              0.5050    Y=             -1.2051    Z=             -0.0000  Tot=              1.3066
 Quadrupole moment (field-independent basis, Debye-Ang):
   XX=            -38.6108   YY=            -37.5299   ZZ=            -43.4324
   XY=             -1.9799   XZ=              0.0000   YZ=             -0.0000

  Exact polarizability:  77.258  -0.100  90.515  -0.000   0.000  39.079
 Approx polarizability: 158.136   2.399 181.754   0.000   0.000  66.419

                      1                      2                      3
                     A"                     A'                     A"
 Frequencies --    204.2231               407.4900               409.4798
 Red. masses --      5.0000                 4.2388                 3.5262
 Frc consts  --      0.1229                 0.4147                 0.3484
 IR Inten    --      0.7245                15.7206                 0.4520

                      4                      5                      6
                     A"                     A"                     A'
 Frequencies --    489.3841               549.5311               550.4364
 Red. masses --      1.5412                 1.5728                 7.1623
 Frc consts  --      0.2175                 0.2798                 1.2785
 IR Inten    --     70.4299                39.0638                 0.8008

                      7                      8                      9
                     A'                     A"                     A"
 Frequencies --    625.4672               729.4296               767.6115
 Red. masses --      7.1663                 2.1487                 1.9703
 Frc consts  --      1.6518                 0.6736                 0.6840
 IR Inten    --      2.1917                 5.4537                54.8508

                     10                     11                     12
                     A'                     A"                     A"
 Frequencies --    831.4705               850.4265               938.5625
 Red. masses --      5.9246                 1.3508                 1.3999
 Frc consts  --      2.4133                 0.5756                 0.7266
 IR Inten    --     14.8818                 0.8507                 0.4351

                     13                     14                     15
                     A"                     A'                     A'
 Frequencies --    965.3200               974.6660              1030.0991
 Red. masses --      1.2907                 6.8496                 2.1446
 Frc consts  --      0.7086                 3.8338                 1.3408
 IR Inten    --      0.0084                 7.5383                 3.6558

                     16                     17                     18
                     A'                     A'                     A'
 Frequencies --   1076.0127              1142.4497              1163.9801
 Red. masses --      1.6926                 1.1720                 1.3290
 Frc consts  --      1.1546                 0.9013                 1.0609
 IR Inten    --     26.2736                40.5816               122.9064

                     19                     20                     21
                     A'                     A'                     A'
 Frequencies --   1266.1504              1275.5048              1336.9198
 Red. masses --      3.6449                 4.9783                 1.3557
 Frc consts  --      3.4428                 4.7720                 1.4277
 IR Inten    --     76.8907                30.7633                22.6678

                     22                     23                     24
                     A'                     A'                     A'
 Frequencies --   1440.9917              1458.5476              1556.7723
 Red. masses --      2.5526                 2.0778                 5.2154
 Frc consts  --      3.1229                 2.6043                 7.4472
 IR Inten    --     80.4088                63.9828                69.9445

                     25                     26                     27
                     A'                     A'                     A'
 Frequencies --   1578.5391              3081.3239              3102.6511
 Red. masses --      5.0620                 1.0886                 1.0878
 Frc consts  --      7.4316                 6.0896                 6.1698
 IR Inten    --     69.0223                16.5154                 7.4460

                     28                     29                     30
                     A'                     A'                     A'
 Frequencies --   3124.7474              3131.1654              3604.7218
 Red. masses --      1.0925                 1.0953                 1.0639
 Frc consts  --      6.2850                 6.3270                 8.1452
 IR Inten    --     15.8940                 3.8042                56.2846

 - Thermochemistry -
 -------------------
 Temperature   298.150 Kelvin.  Pressure   1.00000 Atm.
 Atom     1 has atomic number  8 and mass  15.99491

 Molecular mass:    95.03711 amu.
 Principal axes and moments of inertia in atomic units:
                           1         2         3
     Eigenvalues --   312.14786 660.76779 972.91565
           X           -0.03062   0.99953   0.00000
           Y            0.99953   0.03062   0.00000
           Z           -0.00000  -0.00000   1.00000
 This molecule is an asymmetric top.
 Rotational symmetry number  1.
 Rotational temperatures (Kelvin)      0.27748     0.13108     0.08902
 Rotational constants (GHZ):           5.78169     2.73128     1.85498
 Zero-point vibrational energy     237243.9 (Joules/Mol)
                                   56.70264 (Kcal/Mol)
 Warning -- explicit consideration of   6 degrees of freedom as
           vibrations may cause significant error
 Vibrational temperatures:    293.83   586.29   589.15   704.11   790.65
          (Kelvin)            791.95   899.91  1049.49  1104.42  1196.30
                             1223.57  1350.38  1388.88  1402.33  1482.08
                             1548.14  1643.73  1674.71  1821.71  1835.16
                             1923.53  2073.26  2098.52  2239.85  2271.16
                             4433.33  4464.02  4495.81  4505.04  5186.38

 Zero-point correction=                           0.090361 (Hartree/Particle)
 Thermal correction to Energy=                    0.095717
 Thermal correction to Enthalpy=                  0.096661
 Thermal correction to Gibbs Free Energy=         0.061463
 Sum of electronic and zero-point Energies=           -323.467862
 Sum of electronic and thermal Energies=              -323.462506
 Sum of electronic and thermal Enthalpies=            -323.461562
 Sum of electronic and thermal Free Energies=         -323.496760

                     E (Thermal)             CV                S
                      KCal/Mol        Cal/Mol-Kelvin    Cal/Mol-Kelvin
 Total                   60.063             21.029             74.081
 Electronic               0.000              0.000              0.000
 Translational            0.889              2.981             39.566
 Rotational               0.889              2.981             26.798
 Vibrational             58.286             15.068              7.716
 Vibration     1          0.640              1.834              2.095
 Vibration     2          0.772              1.454              0.936
 Vibration     3          0.774              1.450              0.928
 Vibration     4          0.845              1.274              0.685
 Vibration     5          0.905              1.141              0.545
 Vibration     6          0.906              1.139              0.543

 Optimization completed.
    -- Stationary point found.
 Normal termination of Gaussian 09 at Fri Aug 27 00:03:15 2021.
