 Gaussian 09, Revision E.01,
 Gaussian 09:  EM64L-G09RevE.01 30-Nov-2015

 ---------------------
 #p opt freq B3LYP/gen
 ---------------------

 ---------------------
 HY_B3LYP_PC2_OPT_FREQ
 ---------------------
 Symbolic Z-matrix:
 Charge =  0 Multiplicity = 1

 SCF Done:  E(RB3LYP) =  -323.659051940     A.U. after   14 cycles
 SCF Done:  E(RB3LYP) =  -323.659356997     A.U. after   10 cycles
 SCF Done:  E(RB3LYP) =  -323.659372210     A.U. after    8 cycles
 SCF Done:  E(RB3LYP) =  -323.659373302     A.U. after    7 cycles
 Optimization completed.
    -- Stationary point found.
 Normal termination of Gaussian 09 at Fri Aug 27 00:07:24 2021.

 ------------------------------------------------------------------
 #P Geom=AllCheck Guess=TCheck SCRF=Check GenChk RB3LYP/ChkBas Freq
 ------------------------------------------------------------------

 Structure from the checkpoint file:  "HY_B3LYP_PC2_OPT_FREQ.chk"
 ---------------------
 HY_B3LYP_PC2_OPT_FREQ
 ---------------------
 Charge =  0 Multiplicity = 1

                         Standard orientation:
 ---------------------------------------------------------------------
 Center     Atomic      Atomic             Coordinates (Angstroms)
 Number     Number       Type             X           Y           Z
 ---------------------------------------------------------------------
      1          8           0        0.004822    2.253040   -0.000000
      2          7           0       -1.175526    0.294770   -0.000000
      3          6           0        0.000000    0.901001   -0.000000
      4          6           0        1.223950    0.226604    0.000000
      5          6           0       -1.188664   -1.042397   -0.000000
      6          6           0        1.189935   -1.154096    0.000000
      7          6           0       -0.039284   -1.813018    0.000000
      8          1           0       -0.919388    2.534078   -0.000000
      9          1           0        2.148826    0.783550    0.000000
     10          1           0       -2.167869   -1.505741   -0.000000
     11          1           0        2.113697   -1.716904    0.000000
     12          1           0       -0.100781   -2.891244    0.000000
 ---------------------------------------------------------------------

 SCF Done:  E(RB3LYP) =  -323.659373302     A.U. after    1 cycles

 The electronic state is 1-A'.
 Alpha  occ. eigenvalues --  -19.16215 -14.31753 -10.27392 -10.21774 -10.20050
 Alpha  occ. eigenvalues --  -10.18738 -10.18293  -1.08444  -0.94803  -0.81594
 Alpha  occ. eigenvalues --   -0.76524  -0.65598  -0.63776  -0.56287  -0.52455
 Alpha  occ. eigenvalues --   -0.49128  -0.45526  -0.44576  -0.42274  -0.40739
 Alpha  occ. eigenvalues --   -0.37958  -0.36395  -0.29995  -0.28248  -0.24970
 Alpha virt. eigenvalues --   -0.03960  -0.01309   0.01840   0.02714   0.04191
 Alpha virt. eigenvalues --    0.06234   0.07977   0.12748   0.13400   0.15306
 Alpha virt. eigenvalues --    0.15493   0.16379   0.18206   0.18986   0.19737

 Mulliken charges:
               1
     1  O   -0.389792
     2  N   -0.412945
     3  C    0.492130
     4  C   -0.133499
     5  C    0.127054
     6  C    0.043676
     7  C   -0.133121
     8  H    0.210247
     9  H    0.048216
    10  H    0.055492
    11  H    0.052096
    12  H    0.040445
 Sum of Mulliken charges =  -0.00000

 Dipole moment (field-independent basis, Debye):
    X=              0.4991    Y=             -1.2449    Z=              0.0000  Tot=              1.3412
 Quadrupole moment (field-independent basis, Debye-Ang):
   XX=            -38.1338   YY=            -37.0801   ZZ=            -43.2159
   XY=             -2.0397   XZ=             -0.0000   YZ=             -0.0000

  Exact polarizability:  74.200   0.163  85.537   0.000  -0.000  38.227
 Approx polarizability: 122.992   1.595 137.184   0.000  -0.000  58.100

                      1                      2                      3
                     A"                     A'                     A"
 Frequencies --    215.5988               422.2740               424.8746
 Red. masses --      4.9815                 4.2189                 3.4793
 Frc consts  --      0.1364                 0.4432                 0.3701
 IR Inten    --      0.8635                16.5703                 0.2115

                      4                      5                      6
                     A"                     A"                     A'
 Frequencies --    498.5135               559.6232               568.6384
 Red. masses --      1.3449                 1.8495                 7.0757
 Frc consts  --      0.1969                 0.3413                 1.3480
 IR Inten    --     94.9260                23.1758                 0.6508

                      7                      8                      9
                     A'                     A"                     A"
 Frequencies --    642.9368               759.0235               799.5616
 Red. masses --      7.1170                 1.9488                 2.0849
 Frc consts  --      1.7333                 0.6615                 0.7853
 IR Inten    --      2.4453                 8.1580                58.4135

                     10                     11                     12
                     A'                     A"                     A"
 Frequencies --    862.8402               884.9683               983.3035
 Red. masses --      5.7898                 1.3764                 1.4016
 Frc consts  --      2.5397                 0.6351                 0.7985
 IR Inten    --     14.1002                 1.6603                 0.4679

                     13                     14                     15
                     A"                     A'                     A'
 Frequencies --   1009.0687              1009.6720              1063.6417
 Red. masses --      1.3075                 6.8763                 2.0660
 Frc consts  --      0.7844                 4.1302                 1.3771
 IR Inten    --      0.0382                 7.3396                 3.9075

                     16                     17                     18
                     A'                     A'                     A'
 Frequencies --   1110.0928              1168.0948              1199.8755
 Red. masses --      1.6355                 1.1873                 1.3158
 Frc consts  --      1.1874                 0.9545                 1.1161
 IR Inten    --     26.5126                37.8000               136.3766

                     19                     20                     21
                     A'                     A'                     A'
 Frequencies --   1310.4447              1323.3492              1372.6600
 Red. masses --      3.9354                 3.8980                 1.3460
 Frc consts  --      3.9817                 4.0219                 1.4943
 IR Inten    --      9.3303                94.9912                21.3901

                     22                     23                     24
                     A'                     A'                     A'
 Frequencies --   1491.7119              1512.3184              1623.9644
 Red. masses --      2.5674                 2.2951                 5.8344
 Frc consts  --      3.3659                 3.0927                 9.0657
 IR Inten    --     63.4170               107.2518                90.0629

                     25                     26                     27
                     A'                     A'                     A'
 Frequencies --   1646.3134              3163.3480              3181.7655
 Red. masses --      5.3825                 1.0893                 1.0889
 Frc consts  --      8.5953                 6.4224                 6.4948
 IR Inten    --     87.8177                13.9053                 7.2995

                     28                     29                     30
                     A'                     A'                     A'
 Frequencies --   3206.2174              3212.4855              3767.2377
 Red. masses --      1.0936                 1.0959                 1.0643
 Frc consts  --      6.6238                 6.6634                 8.8994
 IR Inten    --     11.6629                 1.8255                80.7773

 - Thermochemistry -
 -------------------
 Temperature   298.150 Kelvin.  Pressure   1.00000 Atm.
 Atom     1 has atomic number  8 and mass  15.99491

 Molecular mass:    95.03711 amu.
 Principal axes and moments of inertia in atomic units:
                           1         2         3
     Eigenvalues --   306.94494 649.95851 956.90345
           X           -0.02917   0.99957   0.00000
           Y            0.99957   0.02917   0.00000
           Z           -0.00000   0.00000   1.00000
 This molecule is an asymmetric top.
 Rotational symmetry number  1.
 Rotational temperatures (Kelvin)      0.28218     0.13326     0.09051
 Rotational constants (GHZ):           5.87969     2.77670     1.88602
 Zero-point vibrational energy     245201.1 (Joules/Mol)
                                   58.60446 (Kcal/Mol)
 Warning -- explicit consideration of   6 degrees of freedom as
           vibrations may cause significant error
 Vibrational temperatures:    310.20   607.56   611.30   717.25   805.17
          (Kelvin)            818.14   925.04  1092.06  1150.39  1241.43
                             1273.27  1414.75  1451.82  1452.69  1530.34
                             1597.17  1680.63  1726.35  1885.44  1904.00
                             1974.95  2146.24  2175.89  2336.52  2368.67
                             4551.35  4577.85  4613.03  4622.04  5420.21

 Zero-point correction=                           0.093392 (Hartree/Particle)
 Thermal correction to Energy=                    0.098593
 Thermal correction to Enthalpy=                  0.099537
 Thermal correction to Gibbs Free Energy=         0.064608
 Sum of electronic and zero-point Energies=           -323.565981
 Sum of electronic and thermal Energies=              -323.560781
 Sum of electronic and thermal Enthalpies=            -323.559836
 Sum of electronic and thermal Free Energies=         -323.594766

                     E (Thermal)             CV                S
                      KCal/Mol        Cal/Mol-Kelvin    Cal/Mol-Kelvin
 Total                   61.868             20.260             73.514
 Electronic               0.000              0.000              0.000
 Translational            0.889              2.981             39.566
 Rotational               0.889              2.981             26.748
 Vibrational             60.090             14.298              7.200
 Vibration     1          0.645              1.817              1.996
 Vibration     2          0.785              1.422              0.884
 Vibration     3          0.787              1.416              0.876
 Vibration     4          0.854              1.253              0.662
 Vibration     5          0.915              1.119              0.525
 Vibration     6          0.925              1.099              0.507

 Optimization completed.
    -- Stationary point found.
 Normal termination of Gaussian 09 at Fri Aug 27 00:08:01 2021.
