 Gaussian 09, Revision E.01,
 Gaussian 09:  EM64L-G09RevE.01 30-Nov-2015

 --------------------
 #p opt freq BP86/gen
 --------------------

 --------------------
 HY_BP86_PC2_OPT_FREQ
 --------------------
 Symbolic Z-matrix:
 Charge =  0 Multiplicity = 1

 SCF Done:  E(RB-P86) =  -323.657276448     A.U. after   15 cycles
 SCF Done:  E(RB-P86) =  -323.659104110     A.U. after   12 cycles
 SCF Done:  E(RB-P86) =  -323.659156383     A.U. after   10 cycles
 SCF Done:  E(RB-P86) =  -323.659161032     A.U. after    8 cycles
 Optimization completed.
    -- Stationary point found.
 Normal termination of Gaussian 09 at Fri Aug 27 00:01:06 2021.

 -----------------------------------------------------------------
 #P Geom=AllCheck Guess=TCheck SCRF=Check GenChk RBP86/ChkBas Freq
 -----------------------------------------------------------------

 Structure from the checkpoint file:  "HY_BP86_PC2_OPT_FREQ.chk"
 --------------------
 HY_BP86_PC2_OPT_FREQ
 --------------------
 Charge =  0 Multiplicity = 1

                         Standard orientation:
 ---------------------------------------------------------------------
 Center     Atomic      Atomic             Coordinates (Angstroms)
 Number     Number       Type             X           Y           Z
 ---------------------------------------------------------------------
      1          8           0       -0.002705    2.266039    0.000000
      2          7           0       -1.186130    0.295460    0.000000
      3          6           0       -0.000000    0.905924    0.000000
      4          6           0        1.232760    0.231415   -0.000000
      5          6           0       -1.192520   -1.050260    0.000000
      6          6           0        1.200669   -1.157867   -0.000000
      7          6           0       -0.033607   -1.822685    0.000000
      8          1           0       -0.945800    2.523779    0.000000
      9          1           0        2.165154    0.794015   -0.000000
     10          1           0       -2.179440   -1.519885    0.000000
     11          1           0        2.133654   -1.723253   -0.000000
     12          1           0       -0.092829   -2.910350    0.000000
 ---------------------------------------------------------------------

 SCF Done:  E(RB-P86) =  -323.659161033     A.U. after    1 cycles

 The electronic state is 1-A'.
 Alpha  occ. eigenvalues --  -18.80795 -14.00472  -9.99662  -9.94330  -9.92716
 Alpha  occ. eigenvalues --   -9.91628  -9.91155  -0.99392  -0.86372  -0.74033
 Alpha  occ. eigenvalues --   -0.69290  -0.59263  -0.57560  -0.50645  -0.47004
 Alpha  occ. eigenvalues --   -0.43883  -0.40495  -0.39719  -0.37291  -0.35954
 Alpha  occ. eigenvalues --   -0.33248  -0.32040  -0.27022  -0.24049  -0.22186
 Alpha virt. eigenvalues --   -0.07066  -0.04542   0.00891   0.01509   0.03620
 Alpha virt. eigenvalues --    0.05548   0.07180   0.08345   0.11160   0.13485
 Alpha virt. eigenvalues --    0.14372   0.14745   0.15536   0.17639   0.18383

 Mulliken charges:
               1
     1  O   -0.369797
     2  N   -0.412139
     3  C    0.476347
     4  C   -0.149404
     5  C    0.103238
     6  C    0.027816
     7  C   -0.145575
     8  H    0.216086
     9  H    0.062780
    10  H    0.069936
    11  H    0.065922
    12  H    0.054789
 Sum of Mulliken charges =   0.00000

 Dipole moment (field-independent basis, Debye):
    X=              0.4995    Y=             -1.1484    Z=             -0.0000  Tot=              1.2523
 Quadrupole moment (field-independent basis, Debye-Ang):
   XX=            -38.0338   YY=            -36.9120   ZZ=            -43.2121
   XY=             -1.9494   XZ=              0.0000   YZ=             -0.0000

  Exact polarizability:  76.982  -0.086  89.913  -0.000   0.000  38.996
 Approx polarizability: 156.139   2.380 179.670  -0.000  -0.000  64.753

                      1                      2                      3
                     A"                     A'                     A"
 Frequencies --    202.5137               405.7803               406.1148
 Red. masses --      4.9777                 4.2054                 3.5537
 Frc consts  --      0.1203                 0.4080                 0.3453
 IR Inten    --      0.7911                16.4251                 0.4676

                      4                      5                      6
                     A"                     A'                     A"
 Frequencies --    490.5217               548.7658               557.8722
 Red. masses --      1.6606                 7.0272                 1.4560
 Frc consts  --      0.2354                 1.2468                 0.2670
 IR Inten    --     62.3747                 0.4730                46.6614

                      7                      8                      9
                     A'                     A"                     A"
 Frequencies --    619.8711               728.9327               766.6539
 Red. masses --      7.0766                 2.0098                 2.1192
 Frc consts  --      1.6020                 0.6292                 0.7339
 IR Inten    --      2.2445                 7.5878                54.1191

                     10                     11                     12
                     A'                     A"                     A"
 Frequencies --    837.1770               846.0967               935.7568
 Red. masses --      5.7787                 1.3588                 1.4002
 Frc consts  --      2.3862                 0.5731                 0.7224
 IR Inten    --     12.8649                 0.9456                 0.5040

                     13                     14                     15
                     A"                     A'                     A'
 Frequencies --    960.4892               975.0585              1033.4819
 Red. masses --      1.2834                 6.6467                 2.0551
 Frc consts  --      0.6976                 3.7232                 1.2933
 IR Inten    --      0.0001                 6.8318                 3.3256

                     16                     17                     18
                     A'                     A'                     A'
 Frequencies --   1075.2556              1134.2736              1162.1638
 Red. masses --      1.6137                 1.1162                 1.3237
 Frc consts  --      1.0993                 0.8461                 1.0534
 IR Inten    --     24.0287                24.9725               138.5706

                     19                     20                     21
                     A'                     A'                     A'
 Frequencies --   1281.3056              1298.2384              1333.6276
 Red. masses --      3.3624                 2.7991                 1.7916
 Frc consts  --      3.2524                 2.7796                 1.8774
 IR Inten    --     66.1836                11.9080                40.9718

                     22                     23                     24
                     A'                     A'                     A'
 Frequencies --   1444.3537              1459.0613              1571.6082
 Red. masses --      2.6712                 2.3362                 5.9007
 Frc consts  --      3.2832                 2.9303                 8.5870
 IR Inten    --     53.0406               100.2434                80.1562

                     25                     26                     27
                     A'                     A'                     A'
 Frequencies --   1593.4448              3078.9677              3103.0490
 Red. masses --      5.5171                 1.0889                 1.0878
 Frc consts  --      8.2535                 6.0820                 6.1714
 IR Inten    --     76.4158                16.1928                 6.5618

                     28                     29                     30
                     A'                     A'                     A'
 Frequencies --   3126.5703              3132.2064              3617.8231
 Red. masses --      1.0927                 1.0962                 1.0637
 Frc consts  --      6.2936                 6.3365                 8.2027
 IR Inten    --     12.9576                 2.8746                56.5728

 - Thermochemistry -
 -------------------
 Temperature   298.150 Kelvin.  Pressure   1.00000 Atm.
 Atom     1 has atomic number  8 and mass  15.99491

 Molecular mass:    95.03711 amu.
 Principal axes and moments of inertia in atomic units:
                           1         2         3
     Eigenvalues --   311.41487 656.98542 968.40030
           X           -0.03346   0.99944   0.00000
           Y            0.99944   0.03346   0.00000
           Z           -0.00000  -0.00000   1.00000
 This molecule is an asymmetric top.
 Rotational symmetry number  1.
 Rotational temperatures (Kelvin)      0.27813     0.13184     0.08944
 Rotational constants (GHZ):           5.79530     2.74700     1.86363
 Zero-point vibrational energy     237620.4 (Joules/Mol)
                                   56.79265 (Kcal/Mol)
 Warning -- explicit consideration of   7 degrees of freedom as
           vibrations may cause significant error
 Vibrational temperatures:    291.37   583.83   584.31   705.75   789.55
          (Kelvin)            802.65   891.86  1048.77  1103.04  1204.51
                             1217.34  1346.34  1381.93  1402.89  1486.95
                             1547.05  1631.96  1672.09  1843.51  1867.87
                             1918.79  2078.10  2099.26  2261.19  2292.61
                             4429.94  4464.59  4498.43  4506.54  5205.23

 Zero-point correction=                           0.090505 (Hartree/Particle)
 Thermal correction to Energy=                    0.095866
 Thermal correction to Enthalpy=                  0.096810
 Thermal correction to Gibbs Free Energy=         0.061606
 Sum of electronic and zero-point Energies=           -323.568656
 Sum of electronic and thermal Energies=              -323.563296
 Sum of electronic and thermal Enthalpies=            -323.562351
 Sum of electronic and thermal Free Energies=         -323.597555

                     E (Thermal)             CV                S
                      KCal/Mol        Cal/Mol-Kelvin    Cal/Mol-Kelvin
 Total                   60.157             21.026             74.093
 Electronic               0.000              0.000              0.000
 Translational            0.889              2.981             39.566
 Rotational               0.889              2.981             26.785
 Vibrational             58.379             15.064              7.741
 Vibration     1          0.639              1.836              2.110
 Vibration     2          0.771              1.458              0.942
 Vibration     3          0.771              1.457              0.940
 Vibration     4          0.846              1.271              0.682
 Vibration     5          0.904              1.142              0.547
 Vibration     6          0.913              1.122              0.528
 Vibration     7          0.980              0.990              0.417

 Optimization completed.
    -- Stationary point found.
 Normal termination of Gaussian 09 at Fri Aug 27 00:01:41 2021.
