 Gaussian 09, Revision E.01,
 Gaussian 09:  EM64L-G09RevE.01 30-Nov-2015

 -------------------------
 #p opt freq BHandHLYP/gen
 -------------------------

 -------------------------
 HY_BHandHLYP_PC2_OPT_FREQ
 -------------------------
 Symbolic Z-matrix:
 Charge =  0 Multiplicity = 1

 SCF Done:  E(RBHandHLYP) =  -323.460538820     A.U. after   13 cycles
 SCF Done:  E(RBHandHLYP) =  -323.461048345     A.U. after   10 cycles
 SCF Done:  E(RBHandHLYP) =  -323.461058527     A.U. after    9 cycles
 SCF Done:  E(RBHandHLYP) =  -323.461059310     A.U. after    7 cycles
 Optimization completed.
    -- Stationary point found.
 Normal termination of Gaussian 09 at Fri Aug 27 00:08:58 2021.

 ----------------------------------------------------------------------
 #P Geom=AllCheck Guess=TCheck SCRF=Check GenChk RBHandHLYP/ChkBas Freq
 ----------------------------------------------------------------------

 Structure from the checkpoint file:  "HY_BHandHLYP_PC2_OPT_FREQ.chk"
 -------------------------
 HY_BHandHLYP_PC2_OPT_FREQ
 -------------------------
 Charge =  0 Multiplicity = 1

                         Standard orientation:
 ---------------------------------------------------------------------
 Center     Atomic      Atomic             Coordinates (Angstroms)
 Number     Number       Type             X           Y           Z
 ---------------------------------------------------------------------
      1          8           0        0.008627    2.232552   -0.000000
      2          7           0       -1.163538    0.294945    0.000000
      3          6           0       -0.000000    0.894876   -0.000000
      4          6           0        1.214960    0.223055   -0.000000
      5          6           0       -1.181266   -1.030977    0.000000
      6          6           0        1.178531   -1.146942   -0.000000
      7          6           0       -0.044049   -1.800062    0.000000
      8          1           0       -0.898392    2.525566   -0.000000
      9          1           0        2.132908    0.775880   -0.000000
     10          1           0       -2.154079   -1.488553    0.000000
     11          1           0        2.094468   -1.707591   -0.000000
     12          1           0       -0.108207   -2.870032    0.000000
 ---------------------------------------------------------------------

 SCF Done:  E(RBHandHLYP) =  -323.461059310     A.U. after    1 cycles

 The electronic state is 1-A'.
 Alpha  occ. eigenvalues --  -19.71099 -14.79560 -10.68438 -10.62580 -10.60822
 Alpha  occ. eigenvalues --  -10.59071 -10.58652  -1.22779  -1.07860  -0.93240
 Alpha  occ. eigenvalues --   -0.87549  -0.75165  -0.73137  -0.64665  -0.60556
 Alpha  occ. eigenvalues --   -0.56781  -0.52718  -0.52056  -0.49672  -0.47717
 Alpha  occ. eigenvalues --   -0.44698  -0.43001  -0.34527  -0.34396  -0.28915
 Alpha virt. eigenvalues --    0.00862   0.03801   0.04763   0.05957   0.06849
 Alpha virt. eigenvalues --    0.08956   0.10645   0.17266   0.18377   0.19101
 Alpha virt. eigenvalues --    0.19730   0.20051   0.22077   0.22660   0.23774

 Mulliken charges:
               1
     1  O   -0.432625
     2  N   -0.468473
     3  C    0.564979
     4  C   -0.131847
     5  C    0.198953
     6  C    0.080413
     7  C   -0.152137
     8  H    0.217267
     9  H    0.030718
    10  H    0.036764
    11  H    0.035762
    12  H    0.020226
 Sum of Mulliken charges =   0.00000

 Dipole moment (field-independent basis, Debye):
    X=              0.4939    Y=             -1.2958    Z=             -0.0000  Tot=              1.3868
 Quadrupole moment (field-independent basis, Debye-Ang):
   XX=            -37.7579   YY=            -36.7601   ZZ=            -43.1533
   XY=             -2.1042   XZ=              0.0000   YZ=              0.0000

  Exact polarizability:  71.044   0.394  80.408  -0.000  -0.000  37.439
 Approx polarizability:  93.086   1.041 100.836  -0.000  -0.000  49.739

                      1                      2                      3
                     A"                     A'                     A"
 Frequencies --    229.7120               439.7198               444.3800
 Red. masses --      4.9637                 4.2160                 3.3957
 Frc consts  --      0.1543                 0.4803                 0.3951
 IR Inten    --      1.0815                17.4147                 0.0015

                      4                      5                      6
                     A"                     A"                     A'
 Frequencies --    505.7874               576.8822               590.2832
 Red. masses --      1.2213                 2.1765                 7.0065
 Frc consts  --      0.1841                 0.4268                 1.4384
 IR Inten    --    118.7202                 9.2797                 0.6633

                      7                      8                      9
                     A'                     A"                     A"
 Frequencies --    664.8724               795.9901               839.0120
 Red. masses --      7.0783                 1.8411                 2.1173
 Frc consts  --      1.8436                 0.6873                 0.8781
 IR Inten    --      2.7394                10.0405                65.0525

                     10                     11                     12
                     A'                     A"                     A"
 Frequencies --    897.6897               928.3741              1041.8229
 Red. masses --      5.6925                 1.4059                 1.3991
 Frc consts  --      2.7027                 0.7139                 0.8947
 IR Inten    --     12.9473                 3.0672                 0.4865

                     13                     14                     15
                     A'                     A"                     A'
 Frequencies --   1050.2366              1065.5945              1102.5811
 Red. masses --      6.9717                 1.3265                 2.0161
 Frc consts  --      4.5306                 0.8874                 1.4441
 IR Inten    --      7.8832                 0.1358                 4.1586

                     16                     17                     18
                     A'                     A'                     A'
 Frequencies --   1151.7616              1197.1112              1245.8441
 Red. masses --      1.6177                 1.2938                 1.3094
 Frc consts  --      1.2644                 1.0924                 1.1974
 IR Inten    --     27.9687                41.3790               140.0912

                     19                     20                     21
                     A'                     A'                     A'
 Frequencies --   1334.8538              1385.7034              1420.6323
 Red. masses --      3.4412                 3.4414                 1.3032
 Frc consts  --      3.6127                 3.8934                 1.5496
 IR Inten    --     23.6529                85.0345                18.0211

                     22                     23                     24
                     A'                     A'                     A'
 Frequencies --   1552.4765              1580.3389              1703.6986
 Red. masses --      2.5696                 2.4723                 6.2326
 Frc consts  --      3.6489                 3.6379                10.6587
 IR Inten    --     58.4024               139.5919               119.2255

                     25                     26                     27
                     A'                     A'                     A'
 Frequencies --   1726.0755              3263.0381              3276.4160
 Red. masses --      5.5457                 1.0898                 1.0902
 Frc consts  --      9.7348                 6.8368                 6.8953
 IR Inten    --    108.0232                11.3408                 8.0592

                     28                     29                     30
                     A'                     A'                     A'
 Frequencies --   3303.3394              3309.7639              3953.2455
 Red. masses --      1.0949                 1.0965                 1.0648
 Frc consts  --      7.0394                 7.0773                 9.8042
 IR Inten    --      9.4053                 0.8511               110.1907

 - Thermochemistry -
 -------------------
 Temperature   298.150 Kelvin.  Pressure   1.00000 Atm.
 Atom     1 has atomic number  8 and mass  15.99491

 Molecular mass:    95.03711 amu.
 Principal axes and moments of inertia in atomic units:
                           1         2         3
     Eigenvalues --   301.87820 639.47094 941.34914
           X           -0.02697   0.99964   0.00000
           Y            0.99964   0.02697   0.00000
           Z           -0.00000  -0.00000   1.00000
 This molecule is an asymmetric top.
 Rotational symmetry number  1.
 Rotational temperatures (Kelvin)      0.28692     0.13545     0.09201
 Rotational constants (GHZ):           5.97838     2.82224     1.91719
 Zero-point vibrational energy     254668.4 (Joules/Mol)
                                   60.86722 (Kcal/Mol)
 Warning -- explicit consideration of   6 degrees of freedom as
           vibrations may cause significant error
 Vibrational temperatures:    330.50   632.66   639.36   727.71   830.00
          (Kelvin)            849.28   956.60  1145.25  1207.15  1291.57
                             1335.72  1498.95  1511.05  1533.15  1586.37
                             1657.13  1722.37  1792.49  1920.55  1993.72
                             2043.97  2233.66  2273.75  2451.24  2483.43
                             4694.78  4714.03  4752.76  4762.01  5687.83

 Zero-point correction=                           0.096998 (Hartree/Particle)
 Thermal correction to Energy=                    0.102026
 Thermal correction to Enthalpy=                  0.102970
 Thermal correction to Gibbs Free Energy=         0.068335
 Sum of electronic and zero-point Energies=           -323.364061
 Sum of electronic and thermal Energies=              -323.359033
 Sum of electronic and thermal Enthalpies=            -323.358089
 Sum of electronic and thermal Free Energies=         -323.392724

                     E (Thermal)             CV                S
                      KCal/Mol        Cal/Mol-Kelvin    Cal/Mol-Kelvin
 Total                   64.022             19.394             72.895
 Electronic               0.000              0.000              0.000
 Translational            0.889              2.981             39.566
 Rotational               0.889              2.981             26.699
 Vibrational             62.245             13.432              6.629
 Vibration     1          0.652              1.796              1.881
 Vibration     2          0.800              1.384              0.827
 Vibration     3          0.804              1.373              0.813
 Vibration     4          0.861              1.237              0.644
 Vibration     5          0.933              1.081              0.491
 Vibration     6          0.948              1.052              0.467

 Optimization completed.
    -- Stationary point found.
 Normal termination of Gaussian 09 at Fri Aug 27 00:09:37 2021.
