 Gaussian 09, Revision E.01,
 Gaussian 09:  EM64L-G09RevE.01 30-Nov-2015

 -----------------------
 #p opt freq LC-wPBE/gen
 -----------------------

 -----------------------
 HY_LC-wPBE_PC2_OPT_FREQ
 -----------------------
 Symbolic Z-matrix:
 Charge =  0 Multiplicity = 1

 SCF Done:  E(RLC-wPBE) =  -323.429310757     A.U. after   14 cycles
 SCF Done:  E(RLC-wPBE) =  -323.429362295     A.U. after   10 cycles
 SCF Done:  E(RLC-wPBE) =  -323.429366099     A.U. after    8 cycles
 Optimization completed.
    -- Stationary point found.
 Normal termination of Gaussian 09 at Fri Aug 27 00:12:13 2021.

 --------------------------------------------------------------------
 #P Geom=AllCheck Guess=TCheck SCRF=Check GenChk RLC-wPBE/ChkBas Freq
 --------------------------------------------------------------------

 Structure from the checkpoint file:  "HY_LC-wPBE_PC2_OPT_FREQ.chk"
 -----------------------
 HY_LC-wPBE_PC2_OPT_FREQ
 -----------------------
 Charge =  0 Multiplicity = 1

                         Standard orientation:
 ---------------------------------------------------------------------
 Center     Atomic      Atomic             Coordinates (Angstroms)
 Number     Number       Type             X           Y           Z
 ---------------------------------------------------------------------
      1          8           0        0.002428    2.239618    0.000000
      2          7           0       -1.167775    0.294241    0.000000
      3          6           0       -0.000000    0.895631    0.000000
      4          6           0        1.218319    0.224986   -0.000000
      5          6           0       -1.180234   -1.035930    0.000000
      6          6           0        1.183411   -1.146061   -0.000000
      7          6           0       -0.040008   -1.802611   -0.000000
      8          1           0       -0.921192    2.514249    0.000000
      9          1           0        2.142434    0.785062   -0.000000
     10          1           0       -2.160626   -1.500247    0.000000
     11          1           0        2.108173   -1.710039   -0.000000
     12          1           0       -0.102722   -2.881741   -0.000000
 ---------------------------------------------------------------------

 SCF Done:  E(RLC-wPBE) =  -323.429366099     A.U. after    1 cycles

 The electronic state is 1-A'.
 Alpha  occ. eigenvalues --  -18.99856 -14.20204 -10.20743 -10.15072 -10.13509
 Alpha  occ. eigenvalues --  -10.11770 -10.11327  -1.21908  -1.09220  -0.96136
 Alpha  occ. eigenvalues --   -0.90742  -0.79174  -0.77059  -0.69180  -0.65400
 Alpha  occ. eigenvalues --   -0.61440  -0.58301  -0.57456  -0.54212  -0.52211
 Alpha  occ. eigenvalues --   -0.49154  -0.48886  -0.40813  -0.39430  -0.34884
 Alpha virt. eigenvalues --    0.04804   0.07625   0.09496   0.10640   0.11231
 Alpha virt. eigenvalues --    0.13275   0.14726   0.22793   0.23428   0.24237
 Alpha virt. eigenvalues --    0.24800   0.25412   0.27327   0.27928   0.28960

 Mulliken charges:
               1
     1  O   -0.375857
     2  N   -0.417021
     3  C    0.492508
     4  C   -0.155921
     5  C    0.143462
     6  C    0.048916
     7  C   -0.171729
     8  H    0.217626
     9  H    0.054418
    10  H    0.058411
    11  H    0.060159
    12  H    0.045029
 Sum of Mulliken charges =  -0.00000

 Dipole moment (field-independent basis, Debye):
    X=              0.5024    Y=             -1.2930    Z=             -0.0000  Tot=              1.3872
 Quadrupole moment (field-independent basis, Debye-Ang):
   XX=            -37.3211   YY=            -36.4282   ZZ=            -42.7878
   XY=             -2.0827   XZ=              0.0000   YZ=             -0.0000

  Exact polarizability:  71.233   0.295  81.450   0.000  -0.000  37.016
 Approx polarizability:  77.244   0.680  84.086  -0.000   0.000  41.847

                      1                      2                      3
                     A"                     A'                     A"
 Frequencies --    219.5260               425.8881               427.2033
 Red. masses --      4.9070                 4.1818                 3.4366
 Frc consts  --      0.1393                 0.4469                 0.3695
 IR Inten    --      1.0330                18.3711                 0.0668

                      4                      5                      6
                     A"                     A"                     A'
 Frequencies --    504.1644               571.1423               572.5882
 Red. masses --      1.3434                 1.8415                 6.9115
 Frc consts  --      0.2012                 0.3539                 1.3351
 IR Inten    --     99.8405                22.9947                 0.5611

                      7                      8                      9
                     A'                     A"                     A"
 Frequencies --    642.1162               776.9397               824.3484
 Red. masses --      7.0344                 1.7167                 2.2472
 Frc consts  --      1.7089                 0.6105                 0.8997
 IR Inten    --      2.5114                11.7143                60.0212

                     10                     11                     12
                     A'                     A"                     A"
 Frequencies --    882.0925               910.9499              1023.4134
 Red. masses --      5.6142                 1.4209                 1.4028
 Frc consts  --      2.5738                 0.6947                 0.8657
 IR Inten    --     12.0324                 3.2319                 0.4206

                     13                     14                     15
                     A'                     A"                     A'
 Frequencies --   1026.8648              1048.3838              1087.6404
 Red. masses --      6.2569                 1.3468                 1.8966
 Frc consts  --      3.8872                 0.8721                 1.3219
 IR Inten    --      7.9256                 0.1008                 4.4625

                     16                     17                     18
                     A'                     A'                     A'
 Frequencies --   1128.6683              1160.9942              1210.2638
 Red. masses --      1.5298                 1.2444                 1.2756
 Frc consts  --      1.1482                 0.9883                 1.1008
 IR Inten    --     28.7524                39.0207               140.9722

                     19                     20                     21
                     A'                     A'                     A'
 Frequencies --   1306.8559              1362.0663              1373.3839
 Red. masses --      3.5384                 2.8592                 1.3966
 Frc consts  --      3.5605                 3.1253                 1.5521
 IR Inten    --     16.4298                51.7235                38.5568

                     22                     23                     24
                     A'                     A'                     A'
 Frequencies --   1524.0422              1550.1984              1697.8973
 Red. masses --      2.8382                 2.9154                 7.0486
 Frc consts  --      3.8841                 4.1279                11.9722
 IR Inten    --     42.0196               168.5393               113.7543

                     25                     26                     27
                     A'                     A'                     A'
 Frequencies --   1718.3756              3208.4535              3226.9878
 Red. masses --      6.3139                 1.0909                 1.0906
 Frc consts  --     10.9846                 6.6163                 6.6911
 IR Inten    --    116.0259                10.5835                 5.4857

                     28                     29                     30
                     A'                     A'                     A'
 Frequencies --   3255.1562              3261.7564              3850.0124
 Red. masses --      1.0960                 1.0976                 1.0643
 Frc consts  --      6.8421                 6.8800                 9.2950
 IR Inten    --      5.1800                 0.1761               105.6021

 - Thermochemistry -
 -------------------
 Temperature   298.150 Kelvin.  Pressure   1.00000 Atm.
 Atom     1 has atomic number  8 and mass  15.99491

 Molecular mass:    95.03711 amu.
 Principal axes and moments of inertia in atomic units:
                           1         2         3
     Eigenvalues --   303.63384 642.39519 946.02902
           X           -0.03005   0.99955   0.00000
           Y            0.99955   0.03005   0.00000
           Z            0.00000   0.00000   1.00000
 This molecule is an asymmetric top.
 Rotational symmetry number  1.
 Rotational temperatures (Kelvin)      0.28526     0.13483     0.09156
 Rotational constants (GHZ):           5.94381     2.80939     1.90770
 Zero-point vibrational energy     249890.2 (Joules/Mol)
                                   59.72518 (Kcal/Mol)
 Warning -- explicit consideration of   6 degrees of freedom as
           vibrations may cause significant error
 Vibrational temperatures:    315.85   612.76   614.65   725.38   821.75
          (Kelvin)            823.83   923.86  1117.84  1186.05  1269.13
                             1310.65  1472.46  1477.43  1508.39  1564.87
                             1623.90  1670.41  1741.30  1880.27  1959.71
                             1975.99  2192.75  2230.39  2442.89  2472.36
                             4616.24  4642.91  4683.44  4692.93  5539.30

 Zero-point correction=                           0.095178 (Hartree/Particle)
 Thermal correction to Energy=                    0.100310
 Thermal correction to Enthalpy=                  0.101254
 Thermal correction to Gibbs Free Energy=         0.066443
 Sum of electronic and zero-point Energies=           -323.334188
 Sum of electronic and thermal Energies=              -323.329056
 Sum of electronic and thermal Enthalpies=            -323.328112
 Sum of electronic and thermal Free Energies=         -323.362923

                     E (Thermal)             CV                S
                      KCal/Mol        Cal/Mol-Kelvin    Cal/Mol-Kelvin
 Total                   62.946             19.867             73.267
 Electronic               0.000              0.000              0.000
 Translational            0.889              2.981             39.566
 Rotational               0.889              2.981             26.714
 Vibrational             61.168             13.906              6.986
 Vibration     1          0.647              1.811              1.963
 Vibration     2          0.788              1.414              0.872
 Vibration     3          0.789              1.411              0.868
 Vibration     4          0.859              1.241              0.648
 Vibration     5          0.927              1.094              0.502
 Vibration     6          0.929              1.091              0.499

 Optimization completed.
    -- Stationary point found.
 Normal termination of Gaussian 09 at Fri Aug 27 00:13:05 2021.
