 Gaussian 09, Revision E.01,
 Gaussian 09:  EM64L-G09RevE.01 30-Nov-2015

 -------------------
 #p opt freq M06/gen
 -------------------

 -------------------
 HY_M06_PC2_OPT_FREQ
 -------------------
 Symbolic Z-matrix:
 Charge =  0 Multiplicity = 1

 SCF Done:  E(RM06) =  -323.437223992     A.U. after   15 cycles
 Optimization completed.
    -- Stationary point found.
 Normal termination of Gaussian 09 at Fri Aug 27 00:15:18 2021.

 ----------------------------------------------------------------
 #P Geom=AllCheck Guess=TCheck SCRF=Check GenChk RM06/ChkBas Freq
 ----------------------------------------------------------------

 Structure from the checkpoint file:  "HY_M06_PC2_OPT_FREQ.chk"
 -------------------
 HY_M06_PC2_OPT_FREQ
 -------------------
 Charge =  0 Multiplicity = 1

                         Standard orientation:
 ---------------------------------------------------------------------
 Center     Atomic      Atomic             Coordinates (Angstroms)
 Number     Number       Type             X           Y           Z
 ---------------------------------------------------------------------
      1          8           0        0.008372    2.239736    0.000000
      2          7           0       -1.171427    0.296023    0.000000
      3          6           0       -0.000000    0.898309    0.000000
      4          6           0        1.219264    0.225352    0.000000
      5          6           0       -1.184145   -1.035351    0.000000
      6          6           0        1.183632   -1.148671    0.000000
      7          6           0       -0.041314   -1.804878    0.000000
      8          1           0       -0.913944    2.515883    0.000000
      9          1           0        2.143627    0.784264    0.000000
     10          1           0       -2.163617   -1.501920    0.000000
     11          1           0        2.106589   -1.713772    0.000000
     12          1           0       -0.104257   -2.883075    0.000000
 ---------------------------------------------------------------------

 SCF Done:  E(RM06) =  -323.437223992     A.U. after    1 cycles

 The electronic state is 1-A'.
 Alpha  occ. eigenvalues --  -19.23870 -14.38184 -10.33496 -10.27791 -10.26053
 Alpha  occ. eigenvalues --  -10.24473 -10.24083  -1.10747  -0.95919  -0.82446
 Alpha  occ. eigenvalues --   -0.77171  -0.66343  -0.64312  -0.57125  -0.53241
 Alpha  occ. eigenvalues --   -0.49729  -0.45965  -0.45938  -0.43110  -0.41361
 Alpha  occ. eigenvalues --   -0.38454  -0.37591  -0.30836  -0.28964  -0.25627
 Alpha virt. eigenvalues --   -0.02828  -0.00150   0.01121   0.01624   0.02197
 Alpha virt. eigenvalues --    0.04007   0.05262   0.13783   0.14218   0.15581
 Alpha virt. eigenvalues --    0.16511   0.17157   0.18562   0.19287   0.20721

 Mulliken charges:
               1
     1  O   -0.426603
     2  N   -0.448563
     3  C    0.568585
     4  C   -0.142506
     5  C    0.098164
     6  C    0.067551
     7  C   -0.126947
     8  H    0.223357
     9  H    0.041886
    10  H    0.065972
    11  H    0.049402
    12  H    0.029702
 Sum of Mulliken charges =  -0.00000

 Dipole moment (field-independent basis, Debye):
    X=              0.4772    Y=             -1.1392    Z=             -0.0000  Tot=              1.2351
 Quadrupole moment (field-independent basis, Debye-Ang):
   XX=            -37.7296   YY=            -36.5107   ZZ=            -42.5409
   XY=             -2.1009   XZ=              0.0000   YZ=              0.0000

  Exact polarizability:  73.247   0.236  84.253  -0.000  -0.000  37.695
 Approx polarizability: 115.513   1.694 128.032  -0.000  -0.000  54.700

                      1                      2                      3
                     A"                     A"                     A'
 Frequencies --    216.0089               417.8096               424.4745
 Red. masses --      4.9734                 3.5005                 4.2450
 Frc consts  --      0.1367                 0.3600                 0.4506
 IR Inten    --      0.8740                 0.4253                15.8240

                      4                      5                      6
                     A"                     A'                     A"
 Frequencies --    506.4226               567.7059               571.9226
 Red. masses --      1.5674                 6.8500                 1.5292
 Frc consts  --      0.2368                 1.3007                 0.2947
 IR Inten    --     68.6421                 0.6132                45.2588

                      7                      8                      9
                     A'                     A"                     A"
 Frequencies --    631.9959               760.3732               799.2728
 Red. masses --      6.9877                 1.8255                 2.2179
 Frc consts  --      1.6444                 0.6219                 0.8348
 IR Inten    --      2.5920                 7.3194                53.5448

                     10                     11                     12
                     A'                     A"                     A"
 Frequencies --    869.9155               883.6332               978.2957
 Red. masses --      5.5768                 1.3966                 1.4141
 Frc consts  --      2.4865                 0.6425                 0.7974
 IR Inten    --     11.4707                 3.2677                 0.1704

                     13                     14                     15
                     A'                     A"                     A'
 Frequencies --   1002.7883              1011.7454              1062.9619
 Red. masses --      6.3432                 1.3007                 1.9288
 Frc consts  --      3.7582                 0.7845                 1.2840
 IR Inten    --      6.9827                 0.0865                 3.3594

                     16                     17                     18
                     A'                     A'                     A'
 Frequencies --   1105.8940              1145.2170              1194.1804
 Red. masses --      1.5473                 1.1388                 1.3184
 Frc consts  --      1.1150                 0.8800                 1.1077
 IR Inten    --     19.8825                25.9849               142.1952

                     19                     20                     21
                     A'                     A'                     A'
 Frequencies --   1317.7072              1340.3203              1357.4521
 Red. masses --      3.5556                 2.8559                 1.5642
 Frc consts  --      3.6374                 3.0228                 1.6982
 IR Inten    --      8.7380                51.9975                58.7031

                     22                     23                     24
                     A'                     A'                     A'
 Frequencies --   1491.4340              1513.4912              1637.4407
 Red. masses --      2.6394                 2.9252                 6.6211
 Frc consts  --      3.4590                 3.9480                10.4595
 IR Inten    --     20.9103               175.6365               101.2507

                     25                     26                     27
                     A'                     A'                     A'
 Frequencies --   1661.1297              3159.7198              3182.9024
 Red. masses --      6.0424                 1.0895                 1.0889
 Frc consts  --      9.8235                 6.4089                 6.4995
 IR Inten    --    119.2057                16.4365                 5.9149

                     28                     29                     30
                     A'                     A'                     A'
 Frequencies --   3210.9434              3214.6646              3825.0926
 Red. masses --      1.0927                 1.0972                 1.0643
 Frc consts  --      6.6379                 6.6802                 9.1750
 IR Inten    --      7.2242                 3.6026                94.4959

 - Thermochemistry -
 -------------------
 Temperature   298.150 Kelvin.  Pressure   1.00000 Atm.
 Atom     1 has atomic number  8 and mass  15.99491

 Molecular mass:    95.03711 amu.
 Principal axes and moments of inertia in atomic units:
                           1         2         3
     Eigenvalues --   304.62801 643.31482 947.94284
           X           -0.02763   0.99962   0.00000
           Y            0.99962   0.02763   0.00000
           Z           -0.00000  -0.00000   1.00000
 This molecule is an asymmetric top.
 Rotational symmetry number  1.
 Rotational temperatures (Kelvin)      0.28433     0.13464     0.09137
 Rotational constants (GHZ):           5.92441     2.80538     1.90385
 Zero-point vibrational energy     245610.8 (Joules/Mol)
                                   58.70238 (Kcal/Mol)
 Warning -- explicit consideration of   6 degrees of freedom as
           vibrations may cause significant error
 Vibrational temperatures:    310.79   601.13   610.72   728.63   816.80
          (Kelvin)            822.87   909.30  1094.01  1149.97  1251.61
                             1271.35  1407.55  1442.79  1455.67  1529.36
                             1591.13  1647.71  1718.16  1895.88  1928.42
                             1953.07  2145.84  2177.57  2355.91  2389.99
                             4546.13  4579.48  4619.83  4625.18  5503.45

 Zero-point correction=                           0.093548 (Hartree/Particle)
 Thermal correction to Energy=                    0.098747
 Thermal correction to Enthalpy=                  0.099691
 Thermal correction to Gibbs Free Energy=         0.064779
 Sum of electronic and zero-point Energies=           -323.343676
 Sum of electronic and thermal Energies=              -323.338477
 Sum of electronic and thermal Enthalpies=            -323.337533
 Sum of electronic and thermal Free Energies=         -323.372445

                     E (Thermal)             CV                S
                      KCal/Mol        Cal/Mol-Kelvin    Cal/Mol-Kelvin
 Total                   61.964             20.265             73.479
 Electronic               0.000              0.000              0.000
 Translational            0.889              2.981             39.566
 Rotational               0.889              2.981             26.721
 Vibrational             60.187             14.303              7.191
 Vibration     1          0.645              1.817              1.992
 Vibration     2          0.781              1.432              0.899
 Vibration     3          0.786              1.417              0.877
 Vibration     4          0.862              1.236              0.642
 Vibration     5          0.924              1.101              0.509
 Vibration     6          0.928              1.092              0.501

 Optimization completed.
    -- Stationary point found.
 Normal termination of Gaussian 09 at Fri Aug 27 00:16:01 2021.
