 Gaussian 09, Revision E.01,
 Gaussian 09:  EM64L-G09RevE.01 30-Nov-2015

 --------------------
 #p opt freq SVWN/gen
 --------------------

 --------------------
 HY_SVWN_PC2_OPT_FREQ
 --------------------
 Symbolic Z-matrix:
 Charge =  0 Multiplicity = 1

 SCF Done:  E(RS-VWN) =  -321.898689580     A.U. after   15 cycles
 SCF Done:  E(RS-VWN) =  -321.899214506     A.U. after   12 cycles
 SCF Done:  E(RS-VWN) =  -321.899230450     A.U. after    8 cycles
 SCF Done:  E(RS-VWN) =  -321.899231974     A.U. after    8 cycles
 Optimization completed.
    -- Stationary point found.
 Normal termination of Gaussian 09 at Thu Aug 26 23:58:02 2021.

 -----------------------------------------------------------------
 #P Geom=AllCheck Guess=TCheck SCRF=Check GenChk RSVWN/ChkBas Freq
 -----------------------------------------------------------------

 Structure from the checkpoint file:  "HY_SVWN_PC2_OPT_FREQ.chk"
 --------------------
 HY_SVWN_PC2_OPT_FREQ
 --------------------
 Charge =  0 Multiplicity = 1

                         Standard orientation:
 ---------------------------------------------------------------------
 Center     Atomic      Atomic             Coordinates (Angstroms)
 Number     Number       Type             X           Y           Z
 ---------------------------------------------------------------------
      1          8           0       -0.015057    2.236533   -0.000000
      2          7           0       -1.167250    0.287869   -0.000000
      3          6           0       -0.000000    0.900960   -0.000000
      4          6           0        1.220533    0.234591    0.000000
      5          6           0       -1.178141   -1.039982   -0.000000
      6          6           0        1.190854   -1.140761    0.000000
      7          6           0       -0.028632   -1.802069    0.000000
      8          1           0       -0.962473    2.483290   -0.000000
      9          1           0        2.151171    0.802852    0.000000
     10          1           0       -2.164910   -1.514035   -0.000000
     11          1           0        2.125882   -1.705097    0.000000
     12          1           0       -0.086156   -2.890788    0.000000
 ---------------------------------------------------------------------

 SCF Done:  E(RS-VWN) =  -321.899231974     A.U. after    1 cycles

 The electronic state is 1-A'.
 Alpha  occ. eigenvalues --  -18.64979 -13.87211  -9.89042  -9.83624  -9.81947
 Alpha  occ. eigenvalues --   -9.80875  -9.80367  -1.01554  -0.88480  -0.75707
 Alpha  occ. eigenvalues --   -0.70863  -0.61302  -0.59446  -0.52970  -0.49294
 Alpha  occ. eigenvalues --   -0.45781  -0.42751  -0.42116  -0.39218  -0.37506
 Alpha  occ. eigenvalues --   -0.35034  -0.34665  -0.29483  -0.25731  -0.24359
 Alpha virt. eigenvalues --   -0.09051  -0.06470  -0.01385  -0.00578   0.01557
 Alpha virt. eigenvalues --    0.03653   0.05448   0.06711   0.08734   0.11232
 Alpha virt. eigenvalues --    0.11481   0.12354   0.13699   0.15325   0.15814

 Mulliken charges:
               1
     1  O   -0.343699
     2  N   -0.376445
     3  C    0.443573
     4  C   -0.196658
     5  C    0.058275
     6  C    0.011687
     7  C   -0.190520
     8  H    0.219616
     9  H    0.092417
    10  H    0.101172
    11  H    0.097242
    12  H    0.083340
 Sum of Mulliken charges =   0.00000

 Dipole moment (field-independent basis, Debye):
    X=              0.4806    Y=             -1.1249    Z=              0.0000  Tot=              1.2232
 Quadrupole moment (field-independent basis, Debye-Ang):
   XX=            -37.8212   YY=            -36.7734   ZZ=            -43.2777
   XY=             -1.9893   XZ=             -0.0000   YZ=             -0.0000

  Exact polarizability:  75.636  -0.056  88.373  -0.000  -0.000  38.551
 Approx polarizability: 152.632   2.415 176.818   0.000  -0.000  64.978

                      1                      2                      3
                     A"                     A'                     A"
 Frequencies --    202.4606               410.0729               411.4099
 Red. masses --      4.9218                 4.0410                 3.4893
 Frc consts  --      0.1189                 0.4004                 0.3480
 IR Inten    --      0.8597                19.3964                 0.4753

                      4                      5                      6
                     A"                     A'                     A"
 Frequencies --    498.3197               556.3898               589.2579
 Red. masses --      1.7957                 6.7432                 1.3386
 Frc consts  --      0.2627                 1.2299                 0.2739
 IR Inten    --     54.0978                 0.5975                59.0559

                      7                      8                      9
                     A'                     A"                     A"
 Frequencies --    623.6846               737.8951               781.8480
 Red. masses --      6.9439                 1.5682                 2.7212
 Frc consts  --      1.5914                 0.5031                 0.9801
 IR Inten    --      2.4576                18.0926                48.1769

                     10                     11                     12
                     A"                     A'                     A"
 Frequencies --    853.1661               862.6537               943.2461
 Red. masses --      1.4279                 5.3665                 1.4210
 Frc consts  --      0.6124                 2.3529                 0.7449
 IR Inten    --      2.2157                 8.5706                 0.5527

                     13                     14                     15
                     A"                     A'                     A'
 Frequencies --    967.7369               992.9866              1048.3246
 Red. masses --      1.3079                 5.6500                 1.8383
 Frc consts  --      0.7217                 3.2823                 1.1903
 IR Inten    --      0.0002                 7.2741                 3.3093

                     16                     17                     18
                     A'                     A'                     A'
 Frequencies --   1080.7246              1122.3761              1157.5697
 Red. masses --      1.4855                 1.0832                 1.2791
 Frc consts  --      1.0223                 0.8040                 1.0099
 IR Inten    --     27.3724                16.6155               150.8704

                     19                     20                     21
                     A'                     A'                     A'
 Frequencies --   1305.0728              1325.3809              1393.4447
 Red. masses --      1.2884                 2.9627                 8.2916
 Frc consts  --      1.2930                 3.0663                 9.4857
 IR Inten    --     12.6075                45.2252                27.8548

                     22                     23                     24
                     A'                     A'                     A'
 Frequencies --   1466.1730              1490.3960              1623.2451
 Red. masses --      2.8365                 3.6193                 7.3318
 Frc consts  --      3.5925                 4.7367                11.3823
 IR Inten    --      3.3925               171.3734                80.8043

                     25                     26                     27
                     A'                     A'                     A'
 Frequencies --   1641.7910              3085.5870              3114.8453
 Red. masses --      6.8217                 1.0906                 1.0889
 Frc consts  --     10.8337                 6.1175                 6.2246
 IR Inten    --    119.5414                11.4360                 2.8438

                     28                     29                     30
                     A'                     A'                     A'
 Frequencies --   3138.5506              3142.4074              3631.3026
 Red. masses --      1.0931                 1.0983                 1.0631
 Frc consts  --      6.3439                 6.3898                 8.2594
 IR Inten    --      2.7471                 0.7803                76.4833

 - Thermochemistry -
 -------------------
 Temperature   298.150 Kelvin.  Pressure   1.00000 Atm.
 Atom     1 has atomic number  8 and mass  15.99491

 Molecular mass:    95.03711 amu.
 Principal axes and moments of inertia in atomic units:
                           1         2         3
     Eigenvalues --   304.90446 641.75765 946.66211
           X           -0.03738   0.99930   0.00000
           Y            0.99930   0.03738   0.00000
           Z           -0.00000   0.00000   1.00000
 This molecule is an asymmetric top.
 Rotational symmetry number  1.
 Rotational temperatures (Kelvin)      0.28407     0.13496     0.09149
 Rotational constants (GHZ):           5.91904     2.81218     1.90643
 Zero-point vibrational energy     240439.3 (Joules/Mol)
                                   57.46638 (Kcal/Mol)
 Warning -- explicit consideration of   6 degrees of freedom as
           vibrations may cause significant error
 Vibrational temperatures:    291.30   590.00   591.93   716.97   800.52
          (Kelvin)            847.81   897.34  1061.67  1124.90  1227.51
                             1241.16  1357.12  1392.36  1428.68  1508.30
                             1554.92  1614.85  1665.48  1877.71  1906.93
                             2004.85  2109.49  2144.34  2335.48  2362.17
                             4439.47  4481.56  4515.67  4521.22  5224.63

 Zero-point correction=                           0.091579 (Hartree/Particle)
 Thermal correction to Energy=                    0.096870
 Thermal correction to Enthalpy=                  0.097814
 Thermal correction to Gibbs Free Energy=         0.062743
 Sum of electronic and zero-point Energies=           -321.807653
 Sum of electronic and thermal Energies=              -321.802362
 Sum of electronic and thermal Enthalpies=            -321.801418
 Sum of electronic and thermal Free Energies=         -321.836489

                     E (Thermal)             CV                S
                      KCal/Mol        Cal/Mol-Kelvin    Cal/Mol-Kelvin
 Total                   60.787             20.676             73.813
 Electronic               0.000              0.000              0.000
 Translational            0.889              2.981             39.566
 Rotational               0.889              2.981             26.718
 Vibrational             59.009             14.714              7.528
 Vibration     1          0.639              1.836              2.111
 Vibration     2          0.774              1.448              0.926
 Vibration     3          0.775              1.445              0.922
 Vibration     4          0.854              1.254              0.662
 Vibration     5          0.912              1.126              0.531
 Vibration     6          0.947              1.055              0.469

 Optimization completed.
    -- Stationary point found.
 Normal termination of Gaussian 09 at Thu Aug 26 23:58:33 2021.
