 Gaussian 09, Revision E.01,
 Gaussian 09:  EM64L-G09RevE.01 30-Nov-2015

 ----------------------------------------------------------
 #p opt freq TPSSh/gen SCF(novaracc,noincfock) int=acc2e=12
 ----------------------------------------------------------

 ---------------------
 HY_TPSSh_PC2_OPT_FREQ
 ---------------------
 Symbolic Z-matrix:
 Charge =  0 Multiplicity = 1

 SCF Done:  E(RTPSSh) =  -323.662233201     A.U. after   12 cycles
 SCF Done:  E(RTPSSh) =  -323.662703176     A.U. after   10 cycles
 SCF Done:  E(RTPSSh) =  -323.662724258     A.U. after    8 cycles
 SCF Done:  E(RTPSSh) =  -323.662725760     A.U. after    7 cycles
 Optimization completed.
    -- Stationary point found.
 Normal termination of Gaussian 09 at Thu Sep  2 22:22:38 2021.

 ------------------------------------------------------------------
 #P Geom=AllCheck Guess=TCheck SCRF=Check GenChk RTPSSh/ChkBas Freq
 ------------------------------------------------------------------

 Structure from the checkpoint file:  "HY_TPSSh_PC2_OPT_FREQ.chk"
 ---------------------
 HY_TPSSh_PC2_OPT_FREQ
 ---------------------
 Charge =  0 Multiplicity = 1

                         Standard orientation:
 ---------------------------------------------------------------------
 Center     Atomic      Atomic             Coordinates (Angstroms)
 Number     Number       Type             X           Y           Z
 ---------------------------------------------------------------------
      1          8           0       -0.003103    2.254298    0.000000
      2          7           0       -1.179128    0.294278    0.000000
      3          6           0       -0.000000    0.900329    0.000000
      4          6           0        1.226727    0.230337    0.000000
      5          6           0       -1.186523   -1.045140    0.000000
      6          6           0        1.194448   -1.152190    0.000000
      7          6           0       -0.034384   -1.814130    0.000000
      8          1           0       -0.935600    2.518042    0.000000
      9          1           0        2.151891    0.789337    0.000000
     10          1           0       -2.166552   -1.509305    0.000000
     11          1           0        2.120581   -1.713713    0.000000
     12          1           0       -0.093211   -2.893927    0.000000
 ---------------------------------------------------------------------

 SCF Done:  E(RTPSSh) =  -323.662725760     A.U. after    1 cycles

 The electronic state is 1-A'.
 Alpha  occ. eigenvalues --  -19.08647 -14.24909 -10.20847 -10.15494 -10.13857
 Alpha  occ. eigenvalues --  -10.12593 -10.12127  -1.05638  -0.92018  -0.79161
 Alpha  occ. eigenvalues --   -0.74092  -0.63210  -0.61313  -0.53787  -0.50123
 Alpha  occ. eigenvalues --   -0.46870  -0.43365  -0.42297  -0.39959  -0.38544
 Alpha  occ. eigenvalues --   -0.35603  -0.34213  -0.28389  -0.26187  -0.23366
 Alpha virt. eigenvalues --   -0.04735  -0.02042   0.02159   0.02999   0.04502
 Alpha virt. eigenvalues --    0.06528   0.08271   0.11918   0.13643   0.15455
 Alpha virt. eigenvalues --    0.16034   0.16689   0.18257   0.19439   0.20127

 Mulliken charges:
               1
     1  O   -0.407817
     2  N   -0.451258
     3  C    0.543787
     4  C   -0.135226
     5  C    0.164275
     6  C    0.064368
     7  C   -0.158151
     8  H    0.218840
     9  H    0.037883
    10  H    0.049891
    11  H    0.046187
    12  H    0.027220
 Sum of Mulliken charges =   0.00000

 Dipole moment (field-independent basis, Debye):
    X=              0.4945    Y=             -1.2046    Z=              0.0000  Tot=              1.3022
 Quadrupole moment (field-independent basis, Debye-Ang):
   XX=            -37.7121   YY=            -36.7124   ZZ=            -42.8841
   XY=             -1.9940   XZ=              0.0000   YZ=              0.0000

  Exact polarizability:  74.438   0.014  86.158   0.000  -0.000  37.811
 Approx polarizability: 132.422   1.673 149.589   0.000  -0.000  58.839

                      1                      2                      3
                     A"                     A'                     A"
 Frequencies --    211.6134               409.9799               417.8320
 Red. masses --      4.9767                 4.1855                 3.5422
 Frc consts  --      0.1313                 0.4145                 0.3644
 IR Inten    --      0.8513                16.8403                 0.2680

                      4                      5                      6
                     A"                     A'                     A"
 Frequencies --    499.2402               558.2332               561.4866
 Red. masses --      1.4800                 6.9902                 1.6568
 Frc consts  --      0.2173                 1.2834                 0.3077
 IR Inten    --     79.1116                 0.5236                34.5692

                      7                      8                      9
                     A'                     A"                     A"
 Frequencies --    630.1575               754.8001               793.8354
 Red. masses --      7.0408                 2.2541                 1.8934
 Frc consts  --      1.6473                 0.7566                 0.7030
 IR Inten    --      2.6538                 4.2456                59.2726

                     10                     11                     12
                     A'                     A"                     A"
 Frequencies --    856.2131               881.3940               977.3515
 Red. masses --      5.7930                 1.3495                 1.3927
 Frc consts  --      2.5022                 0.6177                 0.7838
 IR Inten    --     13.8145                 1.1455                 0.4577

                     13                     14                     15
                     A'                     A"                     A'
 Frequencies --   1001.8483              1003.5716              1060.1378
 Red. masses --      6.8644                 1.2871                 2.0897
 Frc consts  --      4.0594                 0.7638                 1.3837
 IR Inten    --      6.8715                 0.0186                 3.4508

                     16                     17                     18
                     A'                     A'                     A'
 Frequencies --   1104.9164              1165.3175              1193.0371
 Red. masses --      1.6484                 1.1554                 1.3085
 Frc consts  --      1.1857                 0.9244                 1.0973
 IR Inten    --     28.2129                36.6769               136.4760

                     19                     20                     21
                     A'                     A'                     A'
 Frequencies --   1315.9228              1321.4479              1369.9766
 Red. masses --      3.1821                 4.9728                 1.4132
 Frc consts  --      3.2466                 5.1163                 1.5628
 IR Inten    --     34.7908                62.6113                23.5523

                     22                     23                     24
                     A'                     A'                     A'
 Frequencies --   1486.9953              1507.8493              1618.6423
 Red. masses --      2.5885                 2.2609                 5.7055
 Frc consts  --      3.3722                 3.0287                 8.8073
 IR Inten    --     68.4345               101.9784                88.7882

                     25                     26                     27
                     A'                     A'                     A'
 Frequencies --   1642.9031              3156.4882              3175.4494
 Red. masses --      5.3704                 1.0889                 1.0885
 Frc consts  --      8.5404                 6.3922                 6.4668
 IR Inten    --     77.8402                15.4437                 8.6446

                     28                     29                     30
                     A'                     A'                     A'
 Frequencies --   3200.1926              3207.1449              3725.5685
 Red. masses --      1.0938                 1.0960                 1.0641
 Frc consts  --      6.6001                 6.6420                 8.7019
 IR Inten    --     15.5363                 3.0780                67.8530

 - Thermochemistry -
 -------------------
 Temperature   298.150 Kelvin.  Pressure   1.00000 Atm.
 Atom     1 has atomic number  8 and mass  15.99491

 Molecular mass:    95.03711 amu.
 Principal axes and moments of inertia in atomic units:
                           1         2         3
     Eigenvalues --   308.03404 650.40081 958.43484
           X           -0.03331   0.99945   0.00000
           Y            0.99945   0.03331   0.00000
           Z            0.00000   0.00000   1.00000
 This molecule is an asymmetric top.
 Rotational symmetry number  1.
 Rotational temperatures (Kelvin)      0.28118     0.13317     0.09037
 Rotational constants (GHZ):           5.85890     2.77481     1.88301
 Zero-point vibrational energy     244095.3 (Joules/Mol)
                                   58.34017 (Kcal/Mol)
 Warning -- explicit consideration of   6 degrees of freedom as
           vibrations may cause significant error
 Vibrational temperatures:    304.46   589.87   601.17   718.29   803.17
          (Kelvin)            807.85   906.65  1085.99  1142.15  1231.90
                             1268.13  1406.19  1441.43  1443.91  1525.30
                             1589.73  1676.63  1716.51  1893.32  1901.27
                             1971.09  2139.45  2169.46  2328.86  2363.77
                             4541.48  4568.76  4604.36  4614.36  5360.26

 Zero-point correction=                           0.092971 (Hartree/Particle)
 Thermal correction to Energy=                    0.098216
 Thermal correction to Enthalpy=                  0.099161
 Thermal correction to Gibbs Free Energy=         0.064152
 Sum of electronic and zero-point Energies=           -323.569755
 Sum of electronic and thermal Energies=              -323.564509
 Sum of electronic and thermal Enthalpies=            -323.563565
 Sum of electronic and thermal Free Energies=         -323.598574

                     E (Thermal)             CV                S
                      KCal/Mol        Cal/Mol-Kelvin    Cal/Mol-Kelvin
 Total                   61.632             20.421             73.682
 Electronic               0.000              0.000              0.000
 Translational            0.889              2.981             39.566
 Rotational               0.889              2.981             26.754
 Vibrational             59.854             14.460              7.361
 Vibration     1          0.643              1.823              2.030
 Vibration     2          0.774              1.449              0.927
 Vibration     3          0.781              1.432              0.899
 Vibration     4          0.855              1.252              0.660
 Vibration     5          0.914              1.122              0.527
 Vibration     6          0.917              1.115              0.521

 Optimization completed.
    -- Stationary point found.
 Normal termination of Gaussian 09 at Thu Sep  2 22:27:22 2021.
