 Gaussian 09, Revision E.01,
 Gaussian 09:  EM64L-G09RevE.01 30-Nov-2015

 --------------------
 #p opt freq wB97/gen
 --------------------

 --------------------
 HY_wB97_PC2_OPT_FREQ
 --------------------
 Symbolic Z-matrix:
 Charge =  0 Multiplicity = 1

 SCF Done:  E(RwB97) =  -323.583872291     A.U. after   15 cycles
 SCF Done:  E(RwB97) =  -323.584046694     A.U. after   11 cycles
 SCF Done:  E(RwB97) =  -323.584058346     A.U. after    9 cycles
 SCF Done:  E(RwB97) =  -323.584059915     A.U. after    9 cycles
 Optimization completed.
    -- Stationary point found.
 Normal termination of Gaussian 09 at Fri Aug 27 00:14:13 2021.

 -----------------------------------------------------------------
 #P Geom=AllCheck Guess=TCheck SCRF=Check GenChk RwB97/ChkBas Freq
 -----------------------------------------------------------------

 Structure from the checkpoint file:  "HY_wB97_PC2_OPT_FREQ.chk"
 --------------------
 HY_wB97_PC2_OPT_FREQ
 --------------------
 Charge =  0 Multiplicity = 1

                         Standard orientation:
 ---------------------------------------------------------------------
 Center     Atomic      Atomic             Coordinates (Angstroms)
 Number     Number       Type             X           Y           Z
 ---------------------------------------------------------------------
      1          8           0        0.007802    2.248083   -0.000000
      2          7           0       -1.175242    0.298761   -0.000000
      3          6           0        0.000000    0.897819   -0.000000
      4          6           0        1.224250    0.224268    0.000000
      5          6           0       -1.186948   -1.038460   -0.000000
      6          6           0        1.187712   -1.152886    0.000000
      7          6           0       -0.042834   -1.810463    0.000000
      8          1           0       -0.914116    2.527650   -0.000000
      9          1           0        2.149217    0.785320    0.000000
     10          1           0       -2.169066   -1.501593   -0.000000
     11          1           0        2.112980   -1.718453    0.000000
     12          1           0       -0.107821   -2.890585    0.000000
 ---------------------------------------------------------------------

 SCF Done:  E(RwB97) =  -323.584059915     A.U. after    1 cycles

 The electronic state is 1-A'.
 Alpha  occ. eigenvalues --  -19.03044 -14.23171 -10.23285 -10.17694 -10.16152
 Alpha  occ. eigenvalues --  -10.14326 -10.13884  -1.21943  -1.09111  -0.96157
 Alpha  occ. eigenvalues --   -0.90779  -0.78931  -0.76853  -0.68645  -0.64819
 Alpha  occ. eigenvalues --   -0.61068  -0.57545  -0.57129  -0.53837  -0.51920
 Alpha  occ. eigenvalues --   -0.48799  -0.48272  -0.40184  -0.39185  -0.34336
 Alpha virt. eigenvalues --    0.05130   0.08007   0.10486   0.11635   0.12424
 Alpha virt. eigenvalues --    0.14389   0.15818   0.22752   0.23784   0.24528
 Alpha virt. eigenvalues --    0.24970   0.25466   0.27500   0.28190   0.29398

 Mulliken charges:
               1
     1  O   -0.407927
     2  N   -0.495620
     3  C    0.538693
     4  C   -0.124399
     5  C    0.186625
     6  C    0.054665
     7  C   -0.142868
     8  H    0.220648
     9  H    0.043842
    10  H    0.043960
    11  H    0.046353
    12  H    0.036028
 Sum of Mulliken charges =  -0.00000

 Dipole moment (field-independent basis, Debye):
    X=              0.5226    Y=             -1.3189    Z=              0.0000  Tot=              1.4186
 Quadrupole moment (field-independent basis, Debye-Ang):
   XX=            -37.8114   YY=            -36.8646   ZZ=            -43.2401
   XY=             -2.0435   XZ=             -0.0000   YZ=              0.0000

  Exact polarizability:  72.701   0.292  82.917   0.000  -0.000  38.006
 Approx polarizability:  78.430   0.646  85.093   0.000  -0.000  42.993

                      1                      2                      3
                     A"                     A"                     A'
 Frequencies --    218.8381               426.0009               426.9704
 Red. masses --      4.9217                 3.4492                 4.2724
 Frc consts  --      0.1389                 0.3688                 0.4589
 IR Inten    --      1.0740                 0.1467                16.9401

                      4                      5                      6
                     A"                     A"                     A'
 Frequencies --    501.2239               565.5396               572.8029
 Red. masses --      1.3373                 1.8360                 6.9899
 Frc consts  --      0.1979                 0.3460                 1.3512
 IR Inten    --    100.3262                21.6270                 0.5548

                      7                      8                      9
                     A'                     A"                     A"
 Frequencies --    642.7833               769.6219               813.1910
 Red. masses --      7.0421                 1.6988                 2.3318
 Frc consts  --      1.7143                 0.5929                 0.9085
 IR Inten    --      2.3290                12.9655                57.9558

                     10                     11                     12
                     A'                     A"                     A"
 Frequencies --    875.0007               899.4303              1009.7194
 Red. masses --      5.6968                 1.4164                 1.4090
 Frc consts  --      2.5698                 0.6751                 0.8464
 IR Inten    --     12.5916                 3.7969                 0.2811

                     13                     14                     15
                     A'                     A"                     A'
 Frequencies --   1018.9098              1036.2461              1079.1182
 Red. masses --      6.5155                 1.3318                 1.9382
 Frc consts  --      3.9854                 0.8426                 1.3298
 IR Inten    --      7.9635                 0.0952                 4.0714

                     16                     17                     18
                     A'                     A'                     A'
 Frequencies --   1123.3756              1153.7227              1215.0249
 Red. masses --      1.5467                 1.2839                 1.3409
 Frc consts  --      1.1500                 1.0069                 1.1664
 IR Inten    --     19.6306                35.7442               138.3140

                     19                     20                     21
                     A'                     A'                     A'
 Frequencies --   1291.7399              1350.3123              1374.2785
 Red. masses --      3.0777                 3.1104                 1.3313
 Frc consts  --      3.0257                 3.3415                 1.4814
 IR Inten    --     23.4544                65.2305                34.6578

                     22                     23                     24
                     A'                     A'                     A'
 Frequencies --   1511.8347              1539.1717              1682.0011
 Red. masses --      2.7803                 2.7019                 6.7442
 Frc consts  --      3.7441                 3.7713                11.2417
 IR Inten    --     54.2507               152.2722               121.4776

                     25                     26                     27
                     A'                     A'                     A'
 Frequencies --   1703.3688              3217.4733              3226.0792
 Red. masses --      6.0443                 1.0897                 1.0913
 Frc consts  --     10.3327                 6.6466                 6.6916
 IR Inten    --    107.1668                 9.3418                 8.3198

                     28                     29                     30
                     A'                     A'                     A'
 Frequencies --   3255.3863              3260.2183              3844.0433
 Red. masses --      1.0954                 1.0981                 1.0645
 Frc consts  --      6.8397                 6.8767                 9.2677
 IR Inten    --      7.1670                 0.6816                97.9314

 - Thermochemistry -
 -------------------
 Temperature   298.150 Kelvin.  Pressure   1.00000 Atm.
 Atom     1 has atomic number  8 and mass  15.99491

 Molecular mass:    95.03711 amu.
 Principal axes and moments of inertia in atomic units:
                           1         2         3
     Eigenvalues --   306.55767 647.48095 954.03862
           X           -0.02840   0.99960   0.00000
           Y            0.99960   0.02840   0.00000
           Z            0.00000   0.00000   1.00000
 This molecule is an asymmetric top.
 Rotational symmetry number  1.
 Rotational temperatures (Kelvin)      0.28254     0.13377     0.09079
 Rotational constants (GHZ):           5.88712     2.78733     1.89169
 Zero-point vibrational energy     248843.8 (Joules/Mol)
                                   59.47508 (Kcal/Mol)
 Warning -- explicit consideration of   6 degrees of freedom as
           vibrations may cause significant error
 Vibrational temperatures:    314.86   612.92   614.31   721.15   813.68
          (Kelvin)            824.13   924.82  1107.31  1170.00  1258.93
                             1294.08  1452.76  1465.98  1490.93  1552.61
                             1616.28  1659.95  1748.15  1858.52  1942.80
                             1977.28  2175.19  2214.52  2420.02  2450.76
                             4629.22  4641.60  4683.77  4690.72  5530.71

 Zero-point correction=                           0.094780 (Hartree/Particle)
 Thermal correction to Energy=                    0.099935
 Thermal correction to Enthalpy=                  0.100879
 Thermal correction to Gibbs Free Energy=         0.066023
 Sum of electronic and zero-point Energies=           -323.489280
 Sum of electronic and thermal Energies=              -323.484125
 Sum of electronic and thermal Enthalpies=            -323.483181
 Sum of electronic and thermal Free Energies=         -323.518037

                     E (Thermal)             CV                S
                      KCal/Mol        Cal/Mol-Kelvin    Cal/Mol-Kelvin
 Total                   62.710             20.012             73.361
 Electronic               0.000              0.000              0.000
 Translational            0.889              2.981             39.566
 Rotational               0.889              2.981             26.740
 Vibrational             60.933             14.050              7.055
 Vibration     1          0.647              1.812              1.969
 Vibration     2          0.788              1.414              0.872
 Vibration     3          0.789              1.412              0.869
 Vibration     4          0.857              1.247              0.655
 Vibration     5          0.921              1.106              0.513
 Vibration     6          0.929              1.090              0.499

 Optimization completed.
    -- Stationary point found.
 Normal termination of Gaussian 09 at Fri Aug 27 00:15:01 2021.
