 Gaussian 09, Revision E.01,
 Gaussian 09:  EM64L-G09RevE.01 30-Nov-2015

 ----------------------------------------------------------------------
 #p opt=(calcfc,qst3,maxcycle=200,cartesian) freq gen geom=connectivity
  blyp
 ----------------------------------------------------------------------

 ------------------------
 HY_H2O_BLYP_PC2_OPT_FREQ
 ------------------------
 Symbolic Z-matrix:
 Charge =  0 Multiplicity = 1

 ------------------------
 PY_H2O_BLYP_PC2_OPT_FREQ
 ------------------------
 Symbolic Z-matrix:
 Charge =  0 Multiplicity = 1

 ------------
 TST_H2O_BLYP
 ------------
 Symbolic Z-matrix:
 Charge =  0 Multiplicity = 1

 SCF Done:  E(RB-LYP) =  -399.993265051     A.U. after   17 cycles
 SCF Done:  E(RB-LYP) =  -399.998559511     A.U. after   13 cycles
 SCF Done:  E(RB-LYP) =  -400.000122398     A.U. after   13 cycles
 SCF Done:  E(RB-LYP) =  -400.005790009     A.U. after   13 cycles
 SCF Done:  E(RB-LYP) =  -400.005765907     A.U. after   13 cycles
 SCF Done:  E(RB-LYP) =  -400.007989063     A.U. after   13 cycles
 SCF Done:  E(RB-LYP) =  -400.008133191     A.U. after   12 cycles
 SCF Done:  E(RB-LYP) =  -400.008158281     A.U. after   11 cycles
 SCF Done:  E(RB-LYP) =  -400.008167781     A.U. after    9 cycles
 SCF Done:  E(RB-LYP) =  -400.008167979     A.U. after    8 cycles
 Optimization completed.
    -- Stationary point found.
 Normal termination of Gaussian 09 at Sat Aug 28 23:58:56 2021.

 -----------------------------------------------------------------
 #P Geom=AllCheck Guess=TCheck SCRF=Check GenChk RBLYP/ChkBas Freq
 -----------------------------------------------------------------

 Structure from the checkpoint file:  "TST_H2O_BLYP.chk"
 ------------------------
 HY_H2O_BLYP_PC2_OPT_FREQ
 ------------------------
 Charge =  0 Multiplicity = 1

                         Standard orientation:
 ---------------------------------------------------------------------
 Center     Atomic      Atomic             Coordinates (Angstroms)
 Number     Number       Type             X           Y           Z
 ---------------------------------------------------------------------
      1          8           0        1.388987    1.342628   -0.010561
      2          7           0        0.316791   -0.691785   -0.011066
      3          6           0        0.260635    0.684160   -0.003296
      4          6           0       -1.013009    1.316461    0.010358
      5          6           0       -0.806400   -1.445290   -0.007883
      6          6           0       -2.156439    0.536433    0.013410
      7          6           0       -2.066883   -0.873699    0.004235
      8          1           0        2.247251    0.508856   -0.019940
      9          1           0       -1.051163    2.401803    0.015720
     10          1           0       -0.656884   -2.523186   -0.018585
     11          1           0       -3.134118    1.015144    0.021994
     12          1           0       -2.954355   -1.498909    0.004605
     13          8           0        2.762671   -0.655518   -0.081874
     14          1           0        3.271447   -0.867376    0.717484
     15          1           0        1.539599   -0.999100   -0.005280
 ---------------------------------------------------------------------

 SCF Done:  E(RB-LYP) =  -400.008167979     A.U. after    1 cycles

 The electronic state is 1-A.
 Alpha  occ. eigenvalues --  -18.76810 -18.75068 -14.04110 -10.01555  -9.97080
 Alpha  occ. eigenvalues --   -9.94343  -9.92843  -9.92832  -0.95917  -0.87504
 Alpha  occ. eigenvalues --   -0.86214  -0.73916  -0.68834  -0.59318  -0.56906
 Alpha  occ. eigenvalues --   -0.49644  -0.48467  -0.44618  -0.42690  -0.41085
 Alpha  occ. eigenvalues --   -0.39531  -0.38286  -0.35038  -0.34550  -0.31200
 Alpha  occ. eigenvalues --   -0.30371  -0.27517  -0.25280  -0.23145  -0.20934
 Alpha virt. eigenvalues --   -0.07862  -0.04282  -0.00570   0.00771   0.02141
 Alpha virt. eigenvalues --    0.04015   0.05676   0.07468   0.08531   0.10285
 Alpha virt. eigenvalues --    0.12063   0.12848   0.13943   0.15665   0.16041

 Mulliken charges:
               1
     1  O   -0.465421
     2  N   -0.338490
     3  C    0.438087
     4  C   -0.110492
     5  C    0.115141
     6  C    0.017091
     7  C   -0.106061
     8  H    0.279300
     9  H    0.062828
    10  H    0.059726
    11  H    0.062302
    12  H    0.056022
    13  O   -0.541618
    14  H    0.196991
    15  H    0.274593
 Sum of Mulliken charges =  -0.00000

 Dipole moment (field-independent basis, Debye):
    X=             -2.9149    Y=             -1.5381    Z=              1.3590  Tot=              3.5650
 Quadrupole moment (field-independent basis, Debye-Ang):
   XX=            -46.1921   YY=            -45.9087   ZZ=            -49.6633
   XY=             -2.2632   XZ=              4.9229   YZ=             -1.3258

  Exact polarizability: 111.206   2.167  88.370   1.254  -0.322  45.433
 Approx polarizability: 208.589  16.063 185.994   1.324  -0.459  77.645

 ******    1 imaginary frequencies (negative Signs) ******

                      1                      2                      3
                      A                      A                      A
 Frequencies --  -1415.0862               106.6703               201.8079
 Red. masses --      1.0575                 5.2074                 5.1421
 Frc consts  --      1.2476                 0.0349                 0.1234
 IR Inten    --    252.0798                 2.6387                 1.5518

                      4                      5                      6
                      A                      A                      A
 Frequencies --    319.6062               399.7430               439.9473
 Red. masses --      5.4460                 3.2442                 4.2077
 Frc consts  --      0.3278                 0.3054                 0.4798
 IR Inten    --     11.3527                 4.8062                32.4941

                      7                      8                      9
                      A                      A                      A
 Frequencies --    491.4528               524.1900               562.4238
 Red. masses --      1.4249                 2.1966                 5.0473
 Frc consts  --      0.2028                 0.3556                 0.9407
 IR Inten    --      1.3390                13.0778                21.3657

                     10                     11                     12
                      A                      A                      A
 Frequencies --    594.2117               643.2412               676.8332
 Red. masses --      1.3696                 4.5990                 6.6299
 Frc consts  --      0.2849                 1.1211                 1.7895
 IR Inten    --     48.6251                14.7269               147.1909

                     13                     14                     15
                      A                      A                      A
 Frequencies --    726.5038               761.9432               833.1866
 Red. masses --      2.0595                 1.8768                 5.5883
 Frc consts  --      0.6405                 0.6420                 2.2857
 IR Inten    --     17.9507                44.9104                29.0015

                     16                     17                     18
                      A                      A                      A
 Frequencies --    845.0924               928.2286               968.8379
 Red. masses --      1.4712                 1.3650                 1.2966
 Frc consts  --      0.6190                 0.6929                 0.7171
 IR Inten    --      4.7222                 1.5293                 0.9371

                     19                     20                     21
                      A                      A                      A
 Frequencies --    975.5824              1019.7605              1108.2706
 Red. masses --      3.7028                 2.4410                 1.5541
 Frc consts  --      2.0764                 1.4956                 1.1247
 IR Inten    --    582.6057                 5.5613               119.1127

                     22                     23                     24
                      A                      A                      A
 Frequencies --   1152.3026              1224.3232              1244.5541
 Red. masses --      1.0966                 1.4830                 2.5090
 Frc consts  --      0.8579                 1.3097                 2.2897
 IR Inten    --     13.8899              2657.5129              1416.3181

                     25                     26                     27
                      A                      A                      A
 Frequencies --   1290.4743              1324.0195              1352.5721
 Red. masses --      1.6269                 1.0981                 2.2846
 Frc consts  --      1.5962                 1.1342                 2.4625
 IR Inten    --    867.7862                43.9502                26.5696

                     28                     29                     30
                      A                      A                      A
 Frequencies --   1386.5597              1445.4522              1485.4965
 Red. masses --      1.0807                 2.2772                 3.0458
 Frc consts  --      1.2241                 2.8032                 3.9601
 IR Inten    --     78.2687                51.5733               161.0808

                     31                     32                     33
                      A                      A                      A
 Frequencies --   1515.2753              1606.9893              1618.8890
 Red. masses --      3.7043                 4.0215                 1.2966
 Frc consts  --      5.0112                 6.1188                 2.0021
 IR Inten    --     53.1528               232.2794                81.5359

                     34                     35                     36
                      A                      A                      A
 Frequencies --   1868.2222              3099.9654              3106.4316
 Red. masses --      1.0611                 1.0878                 1.0901
 Frc consts  --      2.1821                 6.1591                 6.1977
 IR Inten    --     22.5742                 6.8356                 8.4821

                     37                     38                     39
                      A                      A                      A
 Frequencies --   3135.4559              3138.9953              3707.1194
 Red. masses --      1.0917                 1.0957                 1.0659
 Frc consts  --      6.3234                 6.3611                 8.6305
 IR Inten    --      6.7949                 4.0451                22.7653

 - Thermochemistry -
 -------------------
 Temperature   298.150 Kelvin.  Pressure   1.00000 Atm.
 Atom     1 has atomic number  8 and mass  15.99491

 Molecular mass:   113.04768 amu.
 Principal axes and moments of inertia in atomic units:
                           1         2         3
     Eigenvalues --   444.961741148.154811588.73305
           X            0.99987  -0.01426   0.00686
           Y            0.01429   0.99989  -0.00449
           Z           -0.00680   0.00459   0.99997
 This molecule is an asymmetric top.
 Rotational symmetry number  1.
 Warning -- assumption of classical behavior for rotation
           may cause significant error
 Rotational temperatures (Kelvin)      0.19465     0.07544     0.05452
 Rotational constants (GHZ):           4.05595     1.57186     1.13596
    1 imaginary frequencies ignored.
 Zero-point vibrational energy     286090.7 (Joules/Mol)
                                   68.37732 (Kcal/Mol)
 Warning -- explicit consideration of   9 degrees of freedom as
           vibrations may cause significant error
 Vibrational temperatures:    153.47   290.36   459.84   575.14   632.99
          (Kelvin)            707.09   754.19   809.20   854.94   925.48
                              973.81  1045.28  1096.26  1198.77  1215.90
                             1335.51  1393.94  1403.64  1467.21  1594.55
                             1657.90  1761.53  1790.63  1856.70  1904.97
                             1946.05  1994.95  2079.68  2137.30  2180.14
                             2312.10  2329.22  2687.95  4460.15  4469.46
                             4511.22  4516.31  5333.71

 Zero-point correction=                           0.108966 (Hartree/Particle)
 Thermal correction to Energy=                    0.115728
 Thermal correction to Enthalpy=                  0.116672
 Thermal correction to Gibbs Free Energy=         0.077988
 Sum of electronic and zero-point Energies=           -399.899202
 Sum of electronic and thermal Energies=              -399.892440
 Sum of electronic and thermal Enthalpies=            -399.891496
 Sum of electronic and thermal Free Energies=         -399.930180

                     E (Thermal)             CV                S
                      KCal/Mol        Cal/Mol-Kelvin    Cal/Mol-Kelvin
 Total                   72.620             26.742             81.417
 Electronic               0.000              0.000              0.000
 Translational            0.889              2.981             40.084
 Rotational               0.889              2.981             28.186
 Vibrational             70.843             20.780             13.147
 Vibration     1          0.606              1.944              3.329
 Vibration     2          0.639              1.837              2.117
 Vibration     3          0.706              1.636              1.312
 Vibration     4          0.766              1.471              0.964
 Vibration     5          0.800              1.383              0.827
 Vibration     6          0.847              1.269              0.680
 Vibration     7          0.879              1.196              0.600
 Vibration     8          0.918              1.113              0.519
 Vibration     9          0.952              1.044              0.460

 Optimization completed.
    -- Stationary point found.
 Normal termination of Gaussian 09 at Sun Aug 29 00:00:03 2021.
