 Gaussian 09, Revision E.01,
 Gaussian 09:  EM64L-G09RevE.01 30-Nov-2015

 --------------------
 #p opt freq BP86/gen
 --------------------

 ---------------------
 4HY_BP86_PC2_OPT_FREQ
 ---------------------
 Symbolic Z-matrix:
 Charge =  0 Multiplicity = 1

 SCF Done:  E(RB-P86) =  -323.647159866     A.U. after   15 cycles
 SCF Done:  E(RB-P86) =  -323.647338372     A.U. after   10 cycles
 SCF Done:  E(RB-P86) =  -323.647344367     A.U. after    9 cycles
 SCF Done:  E(RB-P86) =  -323.647344622     A.U. after    7 cycles
 Optimization completed.
    -- Stationary point found.
 Normal termination of Gaussian 09 at Fri Aug 27 21:12:48 2021.

 -----------------------------------------------------------------
 #P Geom=AllCheck Guess=TCheck SCRF=Check GenChk RBP86/ChkBas Freq
 -----------------------------------------------------------------

 Structure from the checkpoint file:  "4HY_BP86_PC2_OPT_FREQ.chk"
 ---------------------
 4HY_BP86_PC2_OPT_FREQ
 ---------------------
 Charge =  0 Multiplicity = 1

                         Standard orientation:
 ---------------------------------------------------------------------
 Center     Atomic      Atomic             Coordinates (Angstroms)
 Number     Number       Type             X           Y           Z
 ---------------------------------------------------------------------
      1          6           0       -1.153952    1.157063   -0.000067
      2          6           0        0.241883    1.190422   -0.000064
      3          6           0        0.935042   -0.026309   -0.000033
      4          6           0        0.196768   -1.215442    0.000052
      5          6           0       -1.194026   -1.124970    0.000150
      6          7           0       -1.883179    0.030339    0.000049
      7          1           0       -1.716251    2.095230   -0.000060
      8          1           0        0.774674    2.144450   -0.000106
      9          1           0        0.706102   -2.178757    0.000050
     10          1           0       -1.793670   -2.039463    0.000138
     11          8           0        2.298112   -0.112924   -0.000056
     12          1           0        2.672207    0.784974   -0.000141
 ---------------------------------------------------------------------

 SCF Done:  E(RB-P86) =  -323.647344622     A.U. after    1 cycles

 The electronic state is 1-A.
 Alpha  occ. eigenvalues --  -18.82369 -13.99520  -9.98624  -9.94114  -9.93909
 Alpha  occ. eigenvalues --   -9.91915  -9.91343  -0.99955  -0.86316  -0.73270
 Alpha  occ. eigenvalues --   -0.70047  -0.59630  -0.57563  -0.51741  -0.46210
 Alpha  occ. eigenvalues --   -0.43829  -0.40966  -0.39184  -0.39088  -0.36741
 Alpha  occ. eigenvalues --   -0.33924  -0.32087  -0.24965  -0.23620  -0.22233
 Alpha virt. eigenvalues --   -0.05984  -0.05614  -0.01679   0.01825   0.03380
 Alpha virt. eigenvalues --    0.06747   0.06885   0.08024   0.10155   0.10901
 Alpha virt. eigenvalues --    0.14460   0.15646   0.16564   0.17742   0.18380

 Mulliken charges:
               1
     1  C    0.121775
     2  C   -0.188703
     3  C    0.341968
     4  C   -0.142973
     5  C    0.122112
     6  N   -0.354395
     7  H    0.069938
     8  H    0.039201
     9  H    0.061490
    10  H    0.073337
    11  O   -0.352184
    12  H    0.208434
 Sum of Mulliken charges =  -0.00000

 Dipole moment (field-independent basis, Debye):
    X=              2.4438    Y=              1.2564    Z=             -0.0002  Tot=              2.7479
 Quadrupole moment (field-independent basis, Debye-Ang):
   XX=            -43.8824   YY=            -33.7705   ZZ=            -43.2147
   XY=              4.4210   XZ=             -0.0004   YZ=             -0.0004

  Exact polarizability:  85.977   1.570  79.933  -0.002  -0.003  39.329
 Approx polarizability: 178.356   1.742 156.594  -0.004  -0.006  65.506

                      1                      2                      3
                      A                      A                      A
 Frequencies --    215.8585               373.7473               392.9205
 Red. masses --      6.2015                 2.4602                 3.9952
 Frc consts  --      0.1702                 0.2025                 0.3634
 IR Inten    --      0.5970                 5.5374                10.4122

                      4                      5                      6
                      A                      A                      A
 Frequencies --    410.2477               511.5924               520.5738
 Red. masses --      1.1352                 8.5380                 2.6974
 Frc consts  --      0.1126                 1.3166                 0.4307
 IR Inten    --     94.7717                 0.2023                19.9798

                      7                      8                      9
                      A                      A                      A
 Frequencies --    657.7872               722.3650               791.7077
 Red. masses --      7.0221                 3.2891                 1.5781
 Frc consts  --      1.7902                 1.0112                 0.5828
 IR Inten    --      0.0731                 0.1956                37.1860

                     10                     11                     12
                      A                      A                      A
 Frequencies --    819.2468               823.7022               926.5185
 Red. masses --      1.3391                 5.7258                 1.3077
 Frc consts  --      0.5295                 2.2889                 0.6614
 IR Inten    --     11.0834                43.8977                 0.0018

                     13                     14                     15
                      A                      A                      A
 Frequencies --    955.2349               976.1982              1042.8319
 Red. masses --      1.4416                 7.4981                 1.7120
 Frc consts  --      0.7750                 4.2100                 1.0969
 IR Inten    --      0.0332                13.3017                 0.0694

                     16                     17                     18
                      A                      A                      A
 Frequencies --   1067.3315              1154.9157              1201.5058
 Red. masses --      1.4971                 1.3737                 1.3730
 Frc consts  --      1.0048                 1.0795                 1.1678
 IR Inten    --      5.1245               127.0366                19.8658

                     19                     20                     21
                      A                      A                      A
 Frequencies --   1267.3151              1299.9167              1337.4659
 Red. masses --      3.4708                 4.9921                 1.2608
 Frc consts  --      3.2843                 4.9701                 1.3288
 IR Inten    --     58.7965                12.8356                20.0648

                     22                     23                     24
                      A                      A                      A
 Frequencies --   1413.2781              1476.9631              1570.6793
 Red. masses --      2.5145                 2.3191                 5.9608
 Frc consts  --      2.9591                 2.9806                 8.6642
 IR Inten    --     19.4765                30.4305               153.0795

                     25                     26                     27
                      A                      A                      A
 Frequencies --   1586.3083              3067.5269              3073.5121
 Red. masses --      5.6406                 1.0866                 1.0892
 Frc consts  --      8.3628                 6.0241                 6.0621
 IR Inten    --     64.6136                18.0656                20.3333

                     28                     29                     30
                      A                      A                      A
 Frequencies --   3089.5764              3124.4905              3681.9760
 Red. masses --      1.0940                 1.0929                 1.0656
 Frc consts  --      6.1529                 6.2861                 8.5116
 IR Inten    --     14.9458                 4.3280                44.8834

 - Thermochemistry -
 -------------------
 Temperature   298.150 Kelvin.  Pressure   1.00000 Atm.
 Atom     1 has atomic number  6 and mass  12.00000

 Molecular mass:    95.03711 amu.
 Principal axes and moments of inertia in atomic units:
                           1         2         3
     Eigenvalues --   302.86971 690.77939 993.64909
           X            0.99978   0.02089   0.00003
           Y           -0.02089   0.99978   0.00006
           Z           -0.00003  -0.00006   1.00000
 This molecule is an asymmetric top.
 Rotational symmetry number  1.
 Rotational temperatures (Kelvin)      0.28598     0.12539     0.08717
 Rotational constants (GHZ):           5.95880     2.61262     1.81628
 Zero-point vibrational energy     236581.2 (Joules/Mol)
                                   56.54427 (Kcal/Mol)
 Warning -- explicit consideration of   6 degrees of freedom as
           vibrations may cause significant error
 Vibrational temperatures:    310.57   537.74   565.32   590.25   736.07
          (Kelvin)            748.99   946.41  1039.32  1139.09  1178.71
                             1185.12  1333.05  1374.37  1404.53  1500.40
                             1535.65  1661.66  1728.70  1823.38  1870.29
                             1924.31  2033.39  2125.02  2259.85  2282.34
                             4413.48  4422.09  4445.21  4495.44  5297.54

 Zero-point correction=                           0.090109 (Hartree/Particle)
 Thermal correction to Energy=                    0.095597
 Thermal correction to Enthalpy=                  0.096542
 Thermal correction to Gibbs Free Energy=         0.061117
 Sum of electronic and zero-point Energies=           -323.557236
 Sum of electronic and thermal Energies=              -323.551747
 Sum of electronic and thermal Enthalpies=            -323.550803
 Sum of electronic and thermal Free Energies=         -323.586227

                     E (Thermal)             CV                S
                      KCal/Mol        Cal/Mol-Kelvin    Cal/Mol-Kelvin
 Total                   59.988             21.382             74.557
 Electronic               0.000              0.000              0.000
 Translational            0.889              2.981             39.566
 Rotational               0.889              2.981             26.833
 Vibrational             58.211             15.420              8.157
 Vibration     1          0.645              1.817              1.994
 Vibration     2          0.745              1.526              1.064
 Vibration     3          0.760              1.485              0.989
 Vibration     4          0.774              1.448              0.926
 Vibration     5          0.867              1.224              0.630
 Vibration     6          0.876              1.204              0.609

 Optimization completed.
    -- Stationary point found.
 Normal termination of Gaussian 09 at Fri Aug 27 21:13:27 2021.
