 Gaussian 09, Revision E.01,
 Gaussian 09:  EM64L-G09RevE.01 30-Nov-2015

 --------------------
 #p opt freq wB97/gen
 --------------------

 ---------------------
 4HY_wB97_PC2_OPT_FREQ
 ---------------------
 Symbolic Z-matrix:
 Charge =  0 Multiplicity = 1

 SCF Done:  E(RwB97) =  -323.571405291     A.U. after   14 cycles
 SCF Done:  E(RwB97) =  -323.571859521     A.U. after   11 cycles
 SCF Done:  E(RwB97) =  -323.571869027     A.U. after    9 cycles
 Optimization completed.
    -- Stationary point found.
 Normal termination of Gaussian 09 at Fri Aug 27 21:27:02 2021.

 -----------------------------------------------------------------
 #P Geom=AllCheck Guess=TCheck SCRF=Check GenChk RwB97/ChkBas Freq
 -----------------------------------------------------------------

 Structure from the checkpoint file:  "4HY_wB97_PC2_OPT_FREQ.chk"
 ---------------------
 4HY_wB97_PC2_OPT_FREQ
 ---------------------
 Charge =  0 Multiplicity = 1

                         Standard orientation:
 ---------------------------------------------------------------------
 Center     Atomic      Atomic             Coordinates (Angstroms)
 Number     Number       Type             X           Y           Z
 ---------------------------------------------------------------------
      1          6           0       -1.143633    1.149125    0.000039
      2          6           0        0.242719    1.182424   -0.000061
      3          6           0        0.926014   -0.027781   -0.000013
      4          6           0        0.193071   -1.208745    0.000050
      5          6           0       -1.187038   -1.115621   -0.000024
      6          7           0       -1.866047    0.032730    0.000048
      7          1           0       -1.701669    2.081591   -0.000045
      8          1           0        0.772153    2.129347   -0.000131
      9          1           0        0.698971   -2.165550    0.000137
     10          1           0       -1.785496   -2.022406    0.000168
     11          8           0        2.278915   -0.112110   -0.000027
     12          1           0        2.660250    0.768375   -0.000190
 ---------------------------------------------------------------------

 SCF Done:  E(RwB97) =  -323.571869027     A.U. after    1 cycles

 The electronic state is 1-A.
 Alpha  occ. eigenvalues --  -19.04651 -14.22329 -10.22244 -10.17546 -10.17306
 Alpha  occ. eigenvalues --  -10.14601 -10.13989  -1.22363  -1.09374  -0.94951
 Alpha  occ. eigenvalues --   -0.91861  -0.79126  -0.76935  -0.69808  -0.63857
 Alpha  occ. eigenvalues --   -0.60990  -0.57781  -0.56926  -0.55608  -0.53071
 Alpha  occ. eigenvalues --   -0.50417  -0.47294  -0.37531  -0.37438  -0.36326
 Alpha virt. eigenvalues --    0.06315   0.06816   0.08471   0.11745   0.12325
 Alpha virt. eigenvalues --    0.15380   0.16125   0.21156   0.23022   0.23123
 Alpha virt. eigenvalues --    0.24849   0.26486   0.27211   0.28260   0.28898

 Mulliken charges:
               1
     1  C    0.202809
     2  C   -0.163105
     3  C    0.357152
     4  C   -0.119062
     5  C    0.200785
     6  N   -0.444217
     7  H    0.043258
     8  H    0.016933
     9  H    0.043959
    10  H    0.046369
    11  O   -0.387770
    12  H    0.202890
 Sum of Mulliken charges =   0.00000

 Dipole moment (field-independent basis, Debye):
    X=              2.3454    Y=              1.3165    Z=             -0.0002  Tot=              2.6896
 Quadrupole moment (field-independent basis, Debye-Ang):
   XX=            -44.1769   YY=            -33.3496   ZZ=            -43.2334
   XY=              4.5809   XZ=             -0.0007   YZ=             -0.0010

  Exact polarizability:  79.477   1.068  74.728  -0.001  -0.001  38.309
 Approx polarizability:  83.801   0.726  79.632  -0.001  -0.001  43.281

                      1                      2                      3
                      A                      A                      A
 Frequencies --    229.7891               397.5956               409.8154
 Red. masses --      6.0054                 1.5938                 1.5387
 Frc consts  --      0.1868                 0.1484                 0.1523
 IR Inten    --      0.5306                54.3809                58.0766

                      4                      5                      6
                      A                      A                      A
 Frequencies --    414.0308               532.5131               550.3568
 Red. masses --      4.0237                 8.5174                 2.6676
 Frc consts  --      0.4064                 1.4230                 0.4761
 IR Inten    --     10.7061                 0.1755                20.8655

                      7                      8                      9
                      A                      A                      A
 Frequencies --    683.3702               762.7149               845.9205
 Red. masses --      7.0019                 2.7666                 1.6061
 Frc consts  --      1.9265                 0.9483                 0.6772
 IR Inten    --      0.0916                 0.2230                42.8194

                     10                     11                     12
                      A                      A                      A
 Frequencies --    862.0888               867.6813              1000.9982
 Red. masses --      5.6126                 1.3628                 1.3711
 Frc consts  --      2.4576                 0.6045                 0.8094
 IR Inten    --     44.9838                14.1434                 0.2307

                     13                     14                     15
                      A                      A                      A
 Frequencies --   1023.9754              1037.2573              1089.6672
 Red. masses --      7.5763                 1.4367                 1.6129
 Frc consts  --      4.6804                 0.9107                 1.1284
 IR Inten    --     10.4628                 0.0137                 0.9421

                     16                     17                     18
                      A                      A                      A
 Frequencies --   1116.8375              1186.6345              1248.6094
 Red. masses --      1.4063                 1.8192                 1.3183
 Frc consts  --      1.0335                 1.5093                 1.2110
 IR Inten    --      1.5680                92.8413                22.4218

                     19                     20                     21
                      A                      A                      A
 Frequencies --   1291.5896              1332.8254              1385.0146
 Red. masses --      2.8222                 3.4077                 1.2260
 Frc consts  --      2.7739                 3.5666                 1.3856
 IR Inten    --     47.0481                73.3869                21.5899

                     22                     23                     24
                      A                      A                      A
 Frequencies --   1482.3383              1558.7250              1682.5520
 Red. masses --      2.5881                 2.6838                 6.5911
 Frc consts  --      3.3507                 3.8418                10.9938
 IR Inten    --     24.5526                60.0101               156.8136

                     25                     26                     27
                      A                      A                      A
 Frequencies --   1695.0598              3199.4869              3202.1308
 Red. masses --      6.3524                 1.0903                 1.0906
 Frc consts  --     10.7536                 6.5759                 6.5886
 IR Inten    --    116.2249                21.1986                 7.6946

                     28                     29                     30
                      A                      A                      A
 Frequencies --   3227.9245              3259.1206              3889.0421
 Red. masses --      1.0961                 1.0951                 1.0661
 Frc consts  --      6.7287                 6.8537                 9.4998
 IR Inten    --      7.9468                 1.1808                81.1144

 - Thermochemistry -
 -------------------
 Temperature   298.150 Kelvin.  Pressure   1.00000 Atm.
 Atom     1 has atomic number  6 and mass  12.00000

 Molecular mass:    95.03711 amu.
 Principal axes and moments of inertia in atomic units:
                           1         2         3
     Eigenvalues --   298.69676 679.48848 978.18524
           X            0.99978   0.02092   0.00002
           Y           -0.02092   0.99978   0.00002
           Z           -0.00002  -0.00002   1.00000
 This molecule is an asymmetric top.
 Rotational symmetry number  1.
 Rotational temperatures (Kelvin)      0.28997     0.12747     0.08855
 Rotational constants (GHZ):           6.04205     2.65603     1.84499
 Zero-point vibrational energy     248019.8 (Joules/Mol)
                                   59.27814 (Kcal/Mol)
 Warning -- explicit consideration of   6 degrees of freedom as
           vibrations may cause significant error
 Vibrational temperatures:    330.61   572.05   589.63   595.70   766.17
          (Kelvin)            791.84   983.22  1097.38  1217.09  1240.35
                             1248.40  1440.21  1473.27  1492.38  1567.79
                             1606.88  1707.30  1796.47  1858.31  1917.64
                             1992.72  2132.75  2242.65  2420.81  2438.81
                             4603.34  4607.15  4644.26  4689.14  5595.46

 Zero-point correction=                           0.094466 (Hartree/Particle)
 Thermal correction to Energy=                    0.099737
 Thermal correction to Enthalpy=                  0.100681
 Thermal correction to Gibbs Free Energy=         0.065619
 Sum of electronic and zero-point Energies=           -323.477403
 Sum of electronic and thermal Energies=              -323.472132
 Sum of electronic and thermal Enthalpies=            -323.471188
 Sum of electronic and thermal Free Energies=         -323.506250

                     E (Thermal)             CV                S
                      KCal/Mol        Cal/Mol-Kelvin    Cal/Mol-Kelvin
 Total                   62.586             20.314             73.794
 Electronic               0.000              0.000              0.000
 Translational            0.889              2.981             39.566
 Rotational               0.889              2.981             26.787
 Vibrational             60.808             14.353              7.440
 Vibration     1          0.652              1.796              1.881
 Vibration     2          0.764              1.475              0.972
 Vibration     3          0.774              1.449              0.927
 Vibration     4          0.778              1.440              0.912
 Vibration     5          0.887              1.178              0.582
 Vibration     6          0.906              1.139              0.543

 Optimization completed.
    -- Stationary point found.
 Normal termination of Gaussian 09 at Fri Aug 27 21:27:55 2021.
