 Gaussian 09, Revision E.01,
 Gaussian 09:  EM64L-G09RevE.01 30-Nov-2015

 ---------------------
 #p opt freq M062X/gen
 ---------------------

 ----------------------
 4HY_M062X_PC2_OPT_FREQ
 ----------------------
 Symbolic Z-matrix:
 Charge =  0 Multiplicity = 1

 SCF Done:  E(RM062X) =  -323.511993365     A.U. after   14 cycles
 SCF Done:  E(RM062X) =  -323.512644965     A.U. after   11 cycles
 SCF Done:  E(RM062X) =  -323.512659463     A.U. after    8 cycles
 Optimization completed.
    -- Stationary point found.
 Normal termination of Gaussian 09 at Fri Aug 27 21:30:55 2021.

 ------------------------------------------------------------------
 #P Geom=AllCheck Guess=TCheck SCRF=Check GenChk RM062X/ChkBas Freq
 ------------------------------------------------------------------

 Structure from the checkpoint file:  "4HY_M062X_PC2_OPT_FREQ.chk"
 ----------------------
 4HY_M062X_PC2_OPT_FREQ
 ----------------------
 Charge =  0 Multiplicity = 1

                         Standard orientation:
 ---------------------------------------------------------------------
 Center     Atomic      Atomic             Coordinates (Angstroms)
 Number     Number       Type             X           Y           Z
 ---------------------------------------------------------------------
      1          6           0       -1.143750    1.148365    0.000027
      2          6           0        0.241870    1.181056   -0.000060
      3          6           0        0.925733   -0.026837   -0.000015
      4          6           0        0.193751   -1.206471    0.000047
      5          6           0       -1.185957   -1.115505   -0.000006
      6          7           0       -1.863291    0.031745    0.000048
      7          1           0       -1.700957    2.077878   -0.000045
      8          1           0        0.771242    2.125043   -0.000127
      9          1           0        0.700433   -2.159899    0.000128
     10          1           0       -1.782239   -2.020154    0.000168
     11          8           0        2.275515   -0.112038   -0.000029
     12          1           0        2.660558    0.767567   -0.000183
 ---------------------------------------------------------------------

 SCF Done:  E(RM062X) =  -323.512659463     A.U. after    1 cycles

 The electronic state is 1-A.
 Alpha  occ. eigenvalues --  -19.67342 -14.74156 -10.62659 -10.58088 -10.57852
 Alpha  occ. eigenvalues --  -10.55342 -10.54735  -1.21113  -1.05793  -0.90507
 Alpha  occ. eigenvalues --   -0.86972  -0.74241  -0.72044  -0.64823  -0.59025
 Alpha  occ. eigenvalues --   -0.55931  -0.52776  -0.51986  -0.50396  -0.48832
 Alpha  occ. eigenvalues --   -0.45578  -0.42343  -0.32965  -0.32727  -0.31923
 Alpha virt. eigenvalues --    0.00922   0.01637   0.02250   0.05647   0.06061
 Alpha virt. eigenvalues --    0.09092   0.09813   0.15228   0.16976   0.17094
 Alpha virt. eigenvalues --    0.19134   0.20233   0.21046   0.22541   0.22922

 Mulliken charges:
               1
     1  C    0.234889
     2  C   -0.198506
     3  C    0.430517
     4  C   -0.155242
     5  C    0.235726
     6  N   -0.426565
     7  H    0.028555
     8  H   -0.000370
     9  H    0.023792
    10  H    0.031495
    11  O   -0.402079
    12  H    0.197788
 Sum of Mulliken charges =  -0.00000

 Dipole moment (field-independent basis, Debye):
    X=              2.3162    Y=              1.3101    Z=             -0.0002  Tot=              2.6611
 Quadrupole moment (field-independent basis, Debye-Ang):
   XX=            -43.9481   YY=            -33.3603   ZZ=            -43.2763
   XY=              4.5611   XZ=             -0.0007   YZ=             -0.0010

  Exact polarizability:  79.147   1.276  75.097  -0.001  -0.001  38.036
 Approx polarizability: 102.829   0.997  97.596  -0.001  -0.001  49.981

                      1                      2                      3
                      A                      A                      A
 Frequencies --    231.6632               403.4593               417.0951
 Red. masses --      6.2661                 2.6474                 4.0415
 Frc consts  --      0.1981                 0.2539                 0.4143
 IR Inten    --      0.9776                 1.8189                10.3474

                      4                      5                      6
                      A                      A                      A
 Frequencies --    440.0389               531.3906               549.2584
 Red. masses --      1.1068                 8.4750                 2.7314
 Frc consts  --      0.1263                 1.4100                 0.4855
 IR Inten    --    111.5002                 0.2358                20.0675

                      7                      8                      9
                      A                      A                      A
 Frequencies --    682.5388               757.9989               843.8396
 Red. masses --      6.9933                 2.9333                 1.5826
 Frc consts  --      1.9195                 0.9930                 0.6639
 IR Inten    --      0.0953                 0.1986                41.5652

                     10                     11                     12
                      A                      A                      A
 Frequencies --    861.0528               865.7971               996.5519
 Red. masses --      5.6720                 1.3624                 1.3451
 Frc consts  --      2.4777                 0.6017                 0.7870
 IR Inten    --     46.7557                13.6268                 0.0002

                     13                     14                     15
                      A                      A                      A
 Frequencies --   1022.2518              1033.9411              1086.0107
 Red. masses --      7.5782                 1.4185                 1.5919
 Frc consts  --      4.6658                 0.8934                 1.1062
 IR Inten    --     10.2643                 0.0005                 0.5894

                     16                     17                     18
                      A                      A                      A
 Frequencies --   1115.4582              1197.7797              1249.6037
 Red. masses --      1.4083                 1.5695                 1.3618
 Frc consts  --      1.0324                 1.3267                 1.2529
 IR Inten    --      1.5302               113.6119                21.5039

                     19                     20                     21
                      A                      A                      A
 Frequencies --   1311.1674              1331.8208              1386.2613
 Red. masses --      3.8902                 3.2566                 1.2345
 Frc consts  --      3.9404                 3.4033                 1.3977
 IR Inten    --     35.1309                66.0317                22.5856

                     22                     23                     24
                      A                      A                      A
 Frequencies --   1479.8026              1553.7659              1670.1807
 Red. masses --      2.5637                 2.6141                 6.4257
 Frc consts  --      3.3077                 3.7183                10.5608
 IR Inten    --     24.7418                56.0908               157.5110

                     25                     26                     27
                      A                      A                      A
 Frequencies --   1680.8443              3175.5687              3193.3401
 Red. masses --      6.2849                 1.0880                 1.0947
 Frc consts  --     10.4617                 6.4644                 6.5772
 IR Inten    --     90.6832                10.4876                18.8689

                     28                     29                     30
                      A                      A                      A
 Frequencies --   3197.2864              3217.4901              3883.3486
 Red. masses --      1.0904                 1.0966                 1.0661
 Frc consts  --      6.5678                 6.6888                 9.4722
 IR Inten    --      3.8598                 3.0254                83.7658

 - Thermochemistry -
 -------------------
 Temperature   298.150 Kelvin.  Pressure   1.00000 Atm.
 Atom     1 has atomic number  6 and mass  12.00000

 Molecular mass:    95.03711 amu.
 Principal axes and moments of inertia in atomic units:
                           1         2         3
     Eigenvalues --   297.98494 677.91932 975.90426
           X            0.99978   0.02088   0.00002
           Y           -0.02088   0.99978   0.00003
           Z           -0.00002  -0.00003   1.00000
 This molecule is an asymmetric top.
 Rotational symmetry number  1.
 Rotational temperatures (Kelvin)      0.29067     0.12776     0.08875
 Rotational constants (GHZ):           6.05648     2.66218     1.84930
 Zero-point vibrational energy     247427.3 (Joules/Mol)
                                   59.13653 (Kcal/Mol)
 Warning -- explicit consideration of   6 degrees of freedom as
           vibrations may cause significant error
 Vibrational temperatures:    333.31   580.49   600.11   633.12   764.55
          (Kelvin)            790.26   982.02  1090.59  1214.10  1238.86
                             1245.69  1433.81  1470.79  1487.61  1562.53
                             1604.89  1723.34  1797.90  1886.48  1916.19
                             1994.52  2129.10  2235.52  2403.01  2418.36
                             4568.93  4594.50  4600.18  4629.24  5587.27

 Zero-point correction=                           0.094240 (Hartree/Particle)
 Thermal correction to Energy=                    0.099477
 Thermal correction to Enthalpy=                  0.100421
 Thermal correction to Gibbs Free Energy=         0.065426
 Sum of electronic and zero-point Energies=           -323.418419
 Sum of electronic and thermal Energies=              -323.413182
 Sum of electronic and thermal Enthalpies=            -323.412238
 Sum of electronic and thermal Free Energies=         -323.447234

                     E (Thermal)             CV                S
                      KCal/Mol        Cal/Mol-Kelvin    Cal/Mol-Kelvin
 Total                   62.423             20.251             73.654
 Electronic               0.000              0.000              0.000
 Translational            0.889              2.981             39.566
 Rotational               0.889              2.981             26.780
 Vibrational             60.645             14.289              7.308
 Vibration     1          0.653              1.793              1.866
 Vibration     2          0.769              1.463              0.950
 Vibration     3          0.780              1.433              0.902
 Vibration     4          0.800              1.383              0.826
 Vibration     5          0.886              1.181              0.584
 Vibration     6          0.905              1.141              0.546

 Optimization completed.
    -- Stationary point found.
 Normal termination of Gaussian 09 at Fri Aug 27 21:31:44 2021.
