 Gaussian 09, Revision E.01,
 Gaussian 09:  EM64L-G09RevE.01 30-Nov-2015

 ----------------------------------------------------------------------
 #p opt=(calcfc) freq TPSSh/gen SCF(novaracc,noincfock) int=acc2e=12 ge
 om=checkpoint
 ----------------------------------------------------------------------

 ----------------------
 4HY_TPSSh_PC2_OPT_FREQ
 ----------------------
 Structure from the checkpoint file:  "4HY_TPSSh_PC2_OPT_FREQ.chk"
 Charge =  0 Multiplicity = 1

 SCF Done:  E(RTPSSh) =  -323.651044327     A.U. after   12 cycles
 SCF Done:  E(RTPSSh) =  -323.651092294     A.U. after    9 cycles
 Optimization completed.
    -- Stationary point found.
 Normal termination of Gaussian 09 at Sun Sep  5 14:57:35 2021.

 ------------------------------------------------------------------
 #P Geom=AllCheck Guess=TCheck SCRF=Check GenChk RTPSSh/ChkBas Freq
 ------------------------------------------------------------------

 Structure from the checkpoint file:  "4HY_TPSSh_PC2_OPT_FREQ.chk"
 ----------------------
 4HY_TPSSh_PC2_OPT_FREQ
 ----------------------
 Charge =  0 Multiplicity = 1

                         Standard orientation:
 ---------------------------------------------------------------------
 Center     Atomic      Atomic             Coordinates (Angstroms)
 Number     Number       Type             X           Y           Z
 ---------------------------------------------------------------------
      1          6           0       -1.148176    1.151317   -0.000020
      2          6           0        0.240834    1.184927   -0.000065
      3          6           0        0.929158   -0.026149   -0.000027
      4          6           0        0.195580   -1.209694    0.000053
      5          6           0       -1.188236   -1.119350    0.000090
      6          7           0       -1.872558    0.030383    0.000057
      7          1           0       -1.707228    2.081394   -0.000047
      8          1           0        0.769563    2.131821   -0.000128
      9          1           0        0.700563   -2.166163    0.000084
     10          1           0       -1.784496   -2.025783    0.000153
     11          8           0        2.286343   -0.112009   -0.000065
     12          1           0        2.663799    0.775821   -0.000120
 ---------------------------------------------------------------------

 SCF Done:  E(RTPSSh) =  -323.651092294     A.U. after    1 cycles

 The electronic state is 1-A.
 Alpha  occ. eigenvalues --  -19.10241 -14.23988 -10.19775 -10.15286 -10.15071
 Alpha  occ. eigenvalues --  -10.12882 -10.12299  -1.06176  -0.92030  -0.78240
 Alpha  occ. eigenvalues --   -0.74970  -0.63423  -0.61409  -0.54935  -0.49147
 Alpha  occ. eigenvalues --   -0.46942  -0.43818  -0.41871  -0.41762  -0.39307
 Alpha  occ. eigenvalues --   -0.36145  -0.34412  -0.26163  -0.24949  -0.24459
 Alpha virt. eigenvalues --   -0.03554  -0.03213  -0.00150   0.03218   0.04324
 Alpha virt. eigenvalues --    0.07827   0.08038   0.11449   0.12380   0.13250
 Alpha virt. eigenvalues --    0.16153   0.17600   0.18548   0.19487   0.20317

 Mulliken charges:
               1
     1  C    0.191133
     2  C   -0.185378
     3  C    0.362392
     4  C   -0.131890
     5  C    0.189659
     6  N   -0.394682
     7  H    0.049770
     8  H    0.014025
     9  H    0.033744
    10  H    0.052137
    11  O   -0.390946
    12  H    0.210036
 Sum of Mulliken charges =  -0.00000

 Dipole moment (field-independent basis, Debye):
    X=              2.3854    Y=              1.2722    Z=             -0.0001  Tot=              2.7035
 Quadrupole moment (field-independent basis, Debye-Ang):
   XX=            -43.6857   YY=            -33.4626   ZZ=            -42.8841
   XY=              4.4468   XZ=             -0.0002   YZ=             -0.0006

  Exact polarizability:  82.368   1.440  77.115  -0.001  -0.002  38.071
 Approx polarizability: 148.251   1.353 133.132  -0.003  -0.004  59.430

                      1                      2                      3
                      A                      A                      A
 Frequencies --    224.2467               387.9811               397.5037
 Red. masses --      6.2342                 2.4584                 3.9769
 Frc consts  --      0.1847                 0.2180                 0.3702
 IR Inten    --      0.6946                 6.7929                10.7486

                      4                      5                      6
                      A                      A                      A
 Frequencies --    418.7795               519.1806               537.2226
 Red. masses --      1.1424                 8.4752                 2.7811
 Frc consts  --      0.1180                 1.3460                 0.4729
 IR Inten    --     98.4340                 0.2478                19.0678

                      7                      8                      9
                      A                      A                      A
 Frequencies --    671.2615               745.1342               825.1995
 Red. masses --      7.0182                 3.4249                 1.5533
 Frc consts  --      1.8632                 1.1204                 0.6232
 IR Inten    --      0.1100                 0.0110                40.7295

                     10                     11                     12
                      A                      A                      A
 Frequencies --    840.7723               854.1299               966.8652
 Red. masses --      5.7549                 1.3145                 1.3065
 Frc consts  --      2.3969                 0.5650                 0.7196
 IR Inten    --     45.7588                 9.2912                 0.0116

                     13                     14                     15
                      A                      A                      A
 Frequencies --    998.4613              1002.8475              1073.2769
 Red. masses --      1.4315                 7.5120                 1.7602
 Frc consts  --      0.8408                 4.4512                 1.1946
 IR Inten    --      0.0397                13.9988                 0.0706

                     16                     17                     18
                      A                      A                      A
 Frequencies --   1097.2470              1184.5202              1238.0147
 Red. masses --      1.5312                 1.4028                 1.3828
 Frc consts  --      1.0861                 1.1597                 1.2487
 IR Inten    --      6.0588               127.1534                23.1860

                     19                     20                     21
                      A                      A                      A
 Frequencies --   1300.5743              1319.2187              1382.3729
 Red. masses --      3.7317                 4.5431                 1.2391
 Frc consts  --      3.7190                 4.6584                 1.3951
 IR Inten    --     70.9035                11.4648                18.3609

                     22                     23                     24
                      A                      A                      A
 Frequencies --   1454.9360              1527.9989              1619.9310
 Red. masses --      2.4264                 2.2477                 5.7160
 Frc consts  --      3.0262                 3.0919                 8.8377
 IR Inten    --     21.9004                37.0169               148.3225

                     25                     26                     27
                      A                      A                      A
 Frequencies --   1634.5833              3145.7899              3153.4986
 Red. masses --      5.5410                 1.0868                 1.0892
 Frc consts  --      8.7228                 6.3364                 6.3819
 IR Inten    --     76.3998                15.8809                23.6035

                     28                     29                     30
                      A                      A                      A
 Frequencies --   3166.1836              3199.5835              3785.3625
 Red. masses --      1.0950                 1.0936                 1.0659
 Frc consts  --      6.4673                 6.5960                 8.9985
 IR Inten    --     16.0412                 5.1260                54.2009

 - Thermochemistry -
 -------------------
 Temperature   298.150 Kelvin.  Pressure   1.00000 Atm.
 Atom     1 has atomic number  6 and mass  12.00000

 Molecular mass:    95.03711 amu.
 Principal axes and moments of inertia in atomic units:
                           1         2         3
     Eigenvalues --   299.74478 683.58043 983.32521
           X            0.99978   0.02083   0.00003
           Y           -0.02083   0.99978   0.00005
           Z           -0.00003  -0.00005   1.00000
 This molecule is an asymmetric top.
 Rotational symmetry number  1.
 Rotational temperatures (Kelvin)      0.28896     0.12671     0.08808
 Rotational constants (GHZ):           6.02093     2.64013     1.83535
 Zero-point vibrational energy     243276.6 (Joules/Mol)
                                   58.14451 (Kcal/Mol)
 Warning -- explicit consideration of   6 degrees of freedom as
           vibrations may cause significant error
 Vibrational temperatures:    322.64   558.22   571.92   602.53   746.98
          (Kelvin)            772.94   965.79  1072.08  1187.28  1209.68
                             1228.90  1391.10  1436.56  1442.87  1544.20
                             1578.69  1704.26  1781.22  1871.23  1898.06
                             1988.92  2093.33  2198.45  2330.72  2351.80
                             4526.08  4537.18  4555.43  4603.48  5446.29

 Zero-point correction=                           0.092659 (Hartree/Particle)
 Thermal correction to Energy=                    0.098018
 Thermal correction to Enthalpy=                  0.098962
 Thermal correction to Gibbs Free Energy=         0.063756
 Sum of electronic and zero-point Energies=           -323.558433
 Sum of electronic and thermal Energies=              -323.553074
 Sum of electronic and thermal Enthalpies=            -323.552130
 Sum of electronic and thermal Free Energies=         -323.587337

                     E (Thermal)             CV                S
                      KCal/Mol        Cal/Mol-Kelvin    Cal/Mol-Kelvin
 Total                   61.507             20.735             74.098
 Electronic               0.000              0.000              0.000
 Translational            0.889              2.981             39.566
 Rotational               0.889              2.981             26.802
 Vibrational             59.730             14.773              7.730
 Vibration     1          0.649              1.804              1.925
 Vibration     2          0.756              1.496              1.008
 Vibration     3          0.764              1.475              0.972
 Vibration     4          0.782              1.429              0.896
 Vibration     5          0.874              1.208              0.612
 Vibration     6          0.892              1.168              0.571

 Optimization completed.
    -- Stationary point found.
 Normal termination of Gaussian 09 at Sun Sep  5 15:05:27 2021.
