 Gaussian 09, Revision E.01,
 Gaussian 09:  EM64L-G09RevE.01 30-Nov-2015

 --------------------
 #p opt freq SVWN/gen
 --------------------

 ---------------------
 4HY_SVWN_PC2_OPT_FREQ
 ---------------------
 Symbolic Z-matrix:
 Charge =  0 Multiplicity = 1

 SCF Done:  E(RS-VWN) =  -321.884755233     A.U. after   15 cycles
 SCF Done:  E(RS-VWN) =  -321.886036948     A.U. after   12 cycles
 SCF Done:  E(RS-VWN) =  -321.886068909     A.U. after    9 cycles
 SCF Done:  E(RS-VWN) =  -321.886071369     A.U. after    8 cycles
 Optimization completed.
    -- Stationary point found.
 Normal termination of Gaussian 09 at Fri Aug 27 21:09:19 2021.

 -----------------------------------------------------------------
 #P Geom=AllCheck Guess=TCheck SCRF=Check GenChk RSVWN/ChkBas Freq
 -----------------------------------------------------------------

 Structure from the checkpoint file:  "4HY_SVWN_PC2_OPT_FREQ.chk"
 ---------------------
 4HY_SVWN_PC2_OPT_FREQ
 ---------------------
 Charge =  0 Multiplicity = 1

                         Standard orientation:
 ---------------------------------------------------------------------
 Center     Atomic      Atomic             Coordinates (Angstroms)
 Number     Number       Type             X           Y           Z
 ---------------------------------------------------------------------
      1          6           0       -1.138391    1.148254   -0.000057
      2          6           0        0.243150    1.175396   -0.000064
      3          6           0        0.926631   -0.030345   -0.000031
      4          6           0        0.191731   -1.204631    0.000051
      5          6           0       -1.184774   -1.111558    0.000134
      6          7           0       -1.856022    0.034258    0.000049
      7          1           0       -1.698043    2.090133   -0.000058
      8          1           0        0.782160    2.127681   -0.000109
      9          1           0        0.702833   -2.168586    0.000058
     10          1           0       -1.787417   -2.026252    0.000142
     11          8           0        2.264651   -0.113414   -0.000055
     12          1           0        2.645328    0.781828   -0.000138
 ---------------------------------------------------------------------

 SCF Done:  E(RS-VWN) =  -321.886071369     A.U. after    1 cycles

 The electronic state is 1-A.
 Alpha  occ. eigenvalues --  -18.66628 -13.86094  -9.87984  -9.83387  -9.83167
 Alpha  occ. eigenvalues --   -9.81200  -9.80567  -1.02074  -0.88467  -0.74904
 Alpha  occ. eigenvalues --   -0.71650  -0.61860  -0.59376  -0.54059  -0.48740
 Alpha  occ. eigenvalues --   -0.45439  -0.42747  -0.42157  -0.40821  -0.38689
 Alpha  occ. eigenvalues --   -0.36676  -0.33662  -0.27333  -0.25812  -0.23654
 Alpha virt. eigenvalues --   -0.08034  -0.07441  -0.04049  -0.00307   0.01261
 Alpha virt. eigenvalues --    0.04910   0.05092   0.06316   0.07877   0.08978
 Alpha virt. eigenvalues --    0.11575   0.12977   0.14243   0.15165   0.15966

 Mulliken charges:
               1
     1  C    0.076539
     2  C   -0.239497
     3  C    0.342440
     4  C   -0.195027
     5  C    0.080134
     6  N   -0.313009
     7  H    0.099727
     8  H    0.066520
     9  H    0.091356
    10  H    0.103251
    11  O   -0.325811
    12  H    0.213378
 Sum of Mulliken charges =  -0.00000

 Dipole moment (field-independent basis, Debye):
    X=              2.5563    Y=              1.2889    Z=             -0.0002  Tot=              2.8629
 Quadrupole moment (field-independent basis, Debye-Ang):
   XX=            -43.5865   YY=            -33.6387   ZZ=            -43.2760
   XY=              4.5214   XZ=             -0.0004   YZ=             -0.0005

  Exact polarizability:  84.187   1.678  78.914  -0.002  -0.002  38.876
 Approx polarizability: 174.494   2.106 154.003  -0.004  -0.006  65.771

                      1                      2                      3
                      A                      A                      A
 Frequencies --    217.7672               374.1467               396.2937
 Red. masses --      6.0378                 2.4706                 3.8424
 Frc consts  --      0.1687                 0.2038                 0.3555
 IR Inten    --      0.4399                 4.3932                12.3744

                      4                      5                      6
                      A                      A                      A
 Frequencies --    433.4532               516.7136               527.6393
 Red. masses --      1.1251                 8.2896                 2.5317
 Frc consts  --      0.1245                 1.3040                 0.4153
 IR Inten    --    105.4484                 0.7466                17.8000

                      7                      8                      9
                      A                      A                      A
 Frequencies --    663.8937               736.8737               799.6277
 Red. masses --      6.9590                 2.7680                 1.6037
 Frc consts  --      1.8072                 0.8855                 0.6041
 IR Inten    --      0.1107                 0.9894                32.1843

                     10                     11                     12
                      A                      A                      A
 Frequencies --    823.9827               848.1130               933.9830
 Red. masses --      1.4235                 5.4159                 1.3633
 Frc consts  --      0.5694                 2.2952                 0.7007
 IR Inten    --     18.0726                40.1486                 0.0180

                     13                     14                     15
                      A                      A                      A
 Frequencies --    962.8664               997.4067              1046.5255
 Red. masses --      1.4603                 7.5005                 1.4532
 Frc consts  --      0.7977                 4.3962                 0.9377
 IR Inten    --      0.0481                10.3919                 0.6975

                     16                     17                     18
                      A                      A                      A
 Frequencies --   1068.9969              1147.2663              1205.2597
 Red. masses --      1.3445                 1.2688                 1.3334
 Frc consts  --      0.9052                 0.9839                 1.1412
 IR Inten    --      3.6702               136.8946                15.3039

                     19                     20                     21
                      A                      A                      A
 Frequencies --   1314.0221              1322.7132              1377.9959
 Red. masses --      2.4987                 1.3948                 7.1203
 Frc consts  --      2.5420                 1.4378                 7.9661
 IR Inten    --     63.8650                 0.6110                22.2287

                     22                     23                     24
                      A                      A                      A
 Frequencies --   1436.0952              1503.4282              1621.5360
 Red. masses --      3.0826                 3.2136                 7.4370
 Frc consts  --      3.7457                 4.2796                11.5212
 IR Inten    --     15.9645                42.1291               170.7761

                     25                     26                     27
                      A                      A                      A
 Frequencies --   1635.5347              3073.6682              3079.2472
 Red. masses --      6.9302                 1.0879                 1.0910
 Frc consts  --     10.9224                 6.0558                 6.0949
 IR Inten    --     83.0556                15.8189                10.4461

                     28                     29                     30
                      A                      A                      A
 Frequencies --   3097.6538              3134.7611              3711.0001
 Red. masses --      1.0948                 1.0939                 1.0653
 Frc consts  --      6.1895                 6.3335                 8.6442
 IR Inten    --      7.6085                 0.5551                61.9379

 - Thermochemistry -
 -------------------
 Temperature   298.150 Kelvin.  Pressure   1.00000 Atm.
 Atom     1 has atomic number  6 and mass  12.00000

 Molecular mass:    95.03711 amu.
 Principal axes and moments of inertia in atomic units:
                           1         2         3
     Eigenvalues --   297.38836 672.99271 970.38107
           X            0.99977   0.02156   0.00003
           Y           -0.02156   0.99977   0.00006
           Z           -0.00003  -0.00006   1.00000
 This molecule is an asymmetric top.
 Rotational symmetry number  1.
 Rotational temperatures (Kelvin)      0.29125     0.12870     0.08926
 Rotational constants (GHZ):           6.06863     2.68167     1.85983
 Zero-point vibrational energy     239303.8 (Joules/Mol)
                                   57.19497 (Kcal/Mol)
 Warning -- explicit consideration of   6 degrees of freedom as
           vibrations may cause significant error
 Vibrational temperatures:    313.32   538.31   570.18   623.64   743.43
          (Kelvin)            759.15   955.19  1060.20  1150.48  1185.53
                             1220.24  1343.79  1385.35  1435.04  1505.71
                             1538.05  1650.66  1734.10  1890.58  1903.09
                             1982.63  2066.22  2163.10  2333.03  2353.17
                             4422.32  4430.34  4456.83  4510.22  5339.29

 Zero-point correction=                           0.091146 (Hartree/Particle)
 Thermal correction to Energy=                    0.096567
 Thermal correction to Enthalpy=                  0.097511
 Thermal correction to Gibbs Free Energy=         0.062224
 Sum of electronic and zero-point Energies=           -321.794925
 Sum of electronic and thermal Energies=              -321.789505
 Sum of electronic and thermal Enthalpies=            -321.788560
 Sum of electronic and thermal Free Energies=         -321.823847

                     E (Thermal)             CV                S
                      KCal/Mol        Cal/Mol-Kelvin    Cal/Mol-Kelvin
 Total                   60.597             21.067             74.267
 Electronic               0.000              0.000              0.000
 Translational            0.889              2.981             39.566
 Rotational               0.889              2.981             26.765
 Vibrational             58.819             15.105              7.935
 Vibration     1          0.646              1.814              1.978
 Vibration     2          0.745              1.525              1.063
 Vibration     3          0.763              1.478              0.976
 Vibration     4          0.794              1.397              0.847
 Vibration     5          0.872              1.213              0.618
 Vibration     6          0.883              1.189              0.593

 Optimization completed.
    -- Stationary point found.
 Normal termination of Gaussian 09 at Fri Aug 27 21:10:06 2021.
