 Gaussian 09, Revision E.01,
 Gaussian 09:  EM64L-G09RevE.01 30-Nov-2015

 ----------------------
 #p opt freq PBEPBE/gen
 ----------------------

 -----------------------
 4HY_PBEPBE_PC2_OPT_FREQ
 -----------------------
 Symbolic Z-matrix:
 Charge =  0 Multiplicity = 1

 SCF Done:  E(RPBE-PBE) =  -323.259265340     A.U. after   15 cycles
 SCF Done:  E(RPBE-PBE) =  -323.259378880     A.U. after    9 cycles
 SCF Done:  E(RPBE-PBE) =  -323.259381596     A.U. after    8 cycles
 Optimization completed.
    -- Stationary point found.
 Normal termination of Gaussian 09 at Fri Aug 27 21:11:03 2021.

 -------------------------------------------------------------------
 #P Geom=AllCheck Guess=TCheck SCRF=Check GenChk RPBEPBE/ChkBas Freq
 -------------------------------------------------------------------

 Structure from the checkpoint file:  "4HY_PBEPBE_PC2_OPT_FREQ.chk"
 -----------------------
 4HY_PBEPBE_PC2_OPT_FREQ
 -----------------------
 Charge =  0 Multiplicity = 1

                         Standard orientation:
 ---------------------------------------------------------------------
 Center     Atomic      Atomic             Coordinates (Angstroms)
 Number     Number       Type             X           Y           Z
 ---------------------------------------------------------------------
      1          6           0       -1.152946    1.155345    0.000033
      2          6           0        0.241773    1.189147   -0.000062
      3          6           0        0.935111   -0.026242   -0.000014
      4          6           0        0.196688   -1.214136    0.000052
      5          6           0       -1.192847   -1.123412   -0.000011
      6          7           0       -1.881404    0.030275    0.000049
      7          1           0       -1.714565    2.093847   -0.000043
      8          1           0        0.773929    2.143317   -0.000130
      9          1           0        0.706170   -2.177231    0.000139
     10          1           0       -1.791831   -2.038237    0.000163
     11          8           0        2.295146   -0.112804   -0.000034
     12          1           0        2.668280    0.784589   -0.000184
 ---------------------------------------------------------------------

 SCF Done:  E(RPBE-PBE) =  -323.259381596     A.U. after    1 cycles

 The electronic state is 1-A.
 Alpha  occ. eigenvalues --  -18.80237 -13.97674  -9.96975  -9.92438  -9.92232
 Alpha  occ. eigenvalues --   -9.90274  -9.89696  -0.99744  -0.86063  -0.72954
 Alpha  occ. eigenvalues --   -0.69710  -0.59336  -0.57228  -0.51444  -0.45902
 Alpha  occ. eigenvalues --   -0.43450  -0.40589  -0.38928  -0.38685  -0.36397
 Alpha  occ. eigenvalues --   -0.33653  -0.31658  -0.24668  -0.23294  -0.21823
 Alpha virt. eigenvalues --   -0.05671  -0.05268  -0.02183   0.01330   0.02692
 Alpha virt. eigenvalues --    0.06253   0.06326   0.08305   0.10148   0.10816
 Alpha virt. eigenvalues --    0.13941   0.15347   0.16337   0.17347   0.18177

 Mulliken charges:
               1
     1  C    0.126721
     2  C   -0.177448
     3  C    0.322391
     4  C   -0.126417
     5  C    0.126552
     6  N   -0.338870
     7  H    0.062405
     8  H    0.030187
     9  H    0.050778
    10  H    0.065368
    11  O   -0.346102
    12  H    0.204436
 Sum of Mulliken charges =  -0.00000

 Dipole moment (field-independent basis, Debye):
    X=              2.4517    Y=              1.2561    Z=             -0.0002  Tot=              2.7548
 Quadrupole moment (field-independent basis, Debye-Ang):
   XX=            -43.7836   YY=            -33.8455   ZZ=            -43.2369
   XY=              4.4072   XZ=             -0.0007   YZ=             -0.0010

  Exact polarizability:  85.642   1.620  79.758  -0.001  -0.001  38.964
 Approx polarizability: 178.994   1.870 157.112  -0.002  -0.002  65.787

                      1                      2                      3
                      A                      A                      A
 Frequencies --    215.2503               373.2018               393.9301
 Red. masses --      6.2145                 2.4831                 3.9910
 Frc consts  --      0.1696                 0.2038                 0.3649
 IR Inten    --      0.5846                 4.7964                10.4123

                      4                      5                      6
                      A                      A                      A
 Frequencies --    415.7600               511.4523               520.7988
 Red. masses --      1.1288                 8.5176                 2.6835
 Frc consts  --      0.1150                 1.3127                 0.4288
 IR Inten    --     96.1028                 0.2709                19.4659

                      7                      8                      9
                      A                      A                      A
 Frequencies --    657.4161               723.7786               792.4652
 Red. masses --      7.0147                 3.2183                 1.5843
 Frc consts  --      1.7863                 0.9933                 0.5862
 IR Inten    --      0.0781                 0.2521                36.1807

                     10                     11                     12
                      A                      A                      A
 Frequencies --    819.8608               826.7984               927.4724
 Red. masses --      1.3450                 5.7021                 1.3141
 Frc consts  --      0.5327                 2.2966                 0.6660
 IR Inten    --     11.3726                43.0934                 0.0005

                     13                     14                     15
                      A                      A                      A
 Frequencies --    956.7349               978.4253              1044.3930
 Red. masses --      1.4421                 7.5837                 1.6702
 Frc consts  --      0.7777                 4.2775                 1.0734
 IR Inten    --      0.0371                12.3603                 0.1773

                     16                     17                     18
                      A                      A                      A
 Frequencies --   1068.9081              1156.8068              1203.1686
 Red. masses --      1.4727                 1.3567                 1.3652
 Frc consts  --      0.9914                 1.0697                 1.1644
 IR Inten    --      4.6175               127.2419                18.2434

                     19                     20                     21
                      A                      A                      A
 Frequencies --   1274.9738              1311.0250              1336.8780
 Red. masses --      3.3704                 4.6381                 1.3029
 Frc consts  --      3.2280                 4.6969                 1.3720
 IR Inten    --     56.5770                11.8773                22.0030

                     22                     23                     24
                      A                      A                      A
 Frequencies --   1416.1291              1480.4735              1577.7541
 Red. masses --      2.5704                 2.4158                 6.1809
 Frc consts  --      3.0371                 3.1197                 9.0652
 IR Inten    --     19.2119                32.5407               152.8571

                     25                     26                     27
                      A                      A                      A
 Frequencies --   1593.0416              3074.0263              3080.3482
 Red. masses --      5.8033                 1.0867                 1.0892
 Frc consts  --      8.6772                 6.0505                 6.0894
 IR Inten    --     67.4371                18.4346                19.4737

                     28                     29                     30
                      A                      A                      A
 Frequencies --   3097.2150              3131.8612              3695.3045
 Red. masses --      1.0940                 1.0930                 1.0656
 Frc consts  --      6.1832                 6.3163                 8.5730
 IR Inten    --     14.1392                 3.9278                46.7152

 - Thermochemistry -
 -------------------
 Temperature   298.150 Kelvin.  Pressure   1.00000 Atm.
 Atom     1 has atomic number  6 and mass  12.00000

 Molecular mass:    95.03711 amu.
 Principal axes and moments of inertia in atomic units:
                           1         2         3
     Eigenvalues --   302.19967 689.32481 991.52448
           X            0.99978   0.02088   0.00002
           Y           -0.02088   0.99978   0.00003
           Z           -0.00002  -0.00003   1.00000
 This molecule is an asymmetric top.
 Rotational symmetry number  1.
 Rotational temperatures (Kelvin)      0.28661     0.12565     0.08735
 Rotational constants (GHZ):           5.97202     2.61813     1.82017
 Zero-point vibrational energy     237193.5 (Joules/Mol)
                                   56.69060 (Kcal/Mol)
 Warning -- explicit consideration of   6 degrees of freedom as
           vibrations may cause significant error
 Vibrational temperatures:    309.70   536.95   566.78   598.19   735.86
          (Kelvin)            749.31   945.87  1041.35  1140.18  1179.60
                             1189.58  1334.42  1376.53  1407.73  1502.65
                             1537.92  1664.38  1731.09  1834.40  1886.27
                             1923.47  2037.49  2130.07  2270.03  2292.03
                             4422.83  4431.93  4456.20  4506.04  5316.71

 Zero-point correction=                           0.090342 (Hartree/Particle)
 Thermal correction to Energy=                    0.095822
 Thermal correction to Enthalpy=                  0.096766
 Thermal correction to Gibbs Free Energy=         0.061357
 Sum of electronic and zero-point Energies=           -323.169039
 Sum of electronic and thermal Energies=              -323.163560
 Sum of electronic and thermal Enthalpies=            -323.162616
 Sum of electronic and thermal Free Energies=         -323.198024

                     E (Thermal)             CV                S
                      KCal/Mol        Cal/Mol-Kelvin    Cal/Mol-Kelvin
 Total                   60.129             21.336             74.523
 Electronic               0.000              0.000              0.000
 Translational            0.889              2.981             39.566
 Rotational               0.889              2.981             26.826
 Vibrational             58.352             15.374              8.130
 Vibration     1          0.645              1.818              1.999
 Vibration     2          0.745              1.527              1.067
 Vibration     3          0.761              1.483              0.985
 Vibration     4          0.779              1.436              0.906
 Vibration     5          0.867              1.225              0.630
 Vibration     6          0.876              1.204              0.608

 Optimization completed.
    -- Stationary point found.
 Normal termination of Gaussian 09 at Fri Aug 27 21:11:43 2021.
