 Gaussian 09, Revision E.01,
 Gaussian 09:  EM64L-G09RevE.01 30-Nov-2015

 -------------------
 #p opt freq M06/gen
 -------------------

 --------------------
 4HY_M06_PC2_OPT_FREQ
 --------------------
 Symbolic Z-matrix:
 Charge =  0 Multiplicity = 1

 SCF Done:  E(RM06) =  -323.423766785     A.U. after   15 cycles
 SCF Done:  E(RM06) =  -323.424803734     A.U. after   13 cycles
 SCF Done:  E(RM06) =  -323.424826759     A.U. after    9 cycles
 SCF Done:  E(RM06) =  -323.424828233     A.U. after    7 cycles
 Optimization completed.
    -- Stationary point found.
 Normal termination of Gaussian 09 at Fri Aug 27 21:29:11 2021.

 ----------------------------------------------------------------
 #P Geom=AllCheck Guess=TCheck SCRF=Check GenChk RM06/ChkBas Freq
 ----------------------------------------------------------------

 Structure from the checkpoint file:  "4HY_M06_PC2_OPT_FREQ.chk"
 --------------------
 4HY_M06_PC2_OPT_FREQ
 --------------------
 Charge =  0 Multiplicity = 1

                         Standard orientation:
 ---------------------------------------------------------------------
 Center     Atomic      Atomic             Coordinates (Angstroms)
 Number     Number       Type             X           Y           Z
 ---------------------------------------------------------------------
      1          6           0       -1.140319    1.146311   -0.000061
      2          6           0        0.241812    1.177680   -0.000063
      3          6           0        0.925408   -0.028182   -0.000028
      4          6           0        0.192854   -1.204462    0.000053
      5          6           0       -1.183932   -1.112262    0.000135
      6          7           0       -1.859603    0.032723    0.000045
      7          1           0       -1.694524    2.080042   -0.000060
      8          1           0        0.774581    2.121317   -0.000106
      9          1           0        0.699252   -2.159249    0.000058
     10          1           0       -1.778899   -2.020196    0.000129
     11          8           0        2.269123   -0.111744   -0.000049
     12          1           0        2.648887    0.768463   -0.000159
 ---------------------------------------------------------------------

 SCF Done:  E(RM06) =  -323.424828233     A.U. after    1 cycles

 The electronic state is 1-A.
 Alpha  occ. eigenvalues --  -19.25498 -14.37389 -10.32331 -10.27616 -10.27400
 Alpha  occ. eigenvalues --  -10.24756 -10.24186  -1.11396  -0.95847  -0.81651
 Alpha  occ. eigenvalues --   -0.77978  -0.66662  -0.64423  -0.58193  -0.52610
 Alpha  occ. eigenvalues --   -0.49486  -0.46733  -0.45441  -0.44458  -0.42657
 Alpha  occ. eigenvalues --   -0.39610  -0.36992  -0.28334  -0.27439  -0.27232
 Alpha virt. eigenvalues --   -0.01796  -0.01357  -0.01186   0.02127   0.02372
 Alpha virt. eigenvalues --    0.04822   0.05599   0.12660   0.13173   0.14193
 Alpha virt. eigenvalues --    0.17056   0.17278   0.17902   0.20204   0.20263

 Mulliken charges:
               1
     1  C    0.124811
     2  C   -0.171972
     3  C    0.451099
     4  C   -0.137285
     5  C    0.129351
     6  N   -0.381162
     7  H    0.060717
     8  H    0.014027
     9  H    0.040448
    10  H    0.065202
    11  O   -0.404815
    12  H    0.209580
 Sum of Mulliken charges =  -0.00000

 Dipole moment (field-independent basis, Debye):
    X=              2.4122    Y=              1.2784    Z=             -0.0002  Tot=              2.7300
 Quadrupole moment (field-independent basis, Debye-Ang):
   XX=            -43.3885   YY=            -33.5792   ZZ=            -42.5401
   XY=              4.4624   XZ=             -0.0005   YZ=             -0.0005

  Exact polarizability:  80.347   1.339  75.851  -0.001  -0.002  37.925
 Approx polarizability: 125.512   1.325 117.409  -0.002  -0.004  55.199

                      1                      2                      3
                      A                      A                      A
 Frequencies --    226.8340               384.7249               402.9782
 Red. masses --      5.9121                 1.6426                 1.5034
 Frc consts  --      0.1792                 0.1432                 0.1438
 IR Inten    --      0.3205                48.6992                60.5343

                      4                      5                      6
                      A                      A                      A
 Frequencies --    408.0105               525.9021               542.7929
 Red. masses --      3.9618                 8.4307                 2.7211
 Frc consts  --      0.3886                 1.3738                 0.4724
 IR Inten    --     10.8952                 0.5211                15.3820

                      7                      8                      9
                      A                      A                      A
 Frequencies --    675.5758               750.6774               829.3975
 Red. masses --      6.9844                 2.9989                 1.5788
 Frc consts  --      1.8781                 0.9957                 0.6399
 IR Inten    --      0.1270                 0.0239                36.6380

                     10                     11                     12
                      A                      A                      A
 Frequencies --    853.1650               853.4372               977.1784
 Red. masses --      5.5695                 1.3556                 1.3357
 Frc consts  --      2.3885                 0.5817                 0.7514
 IR Inten    --     43.9055                12.0007                 0.1218

                     13                     14                     15
                      A                      A                      A
 Frequencies --   1007.1053              1011.5072              1069.6720
 Red. masses --      7.6235                 1.4330                 1.5734
 Frc consts  --      4.5557                 0.8639                 1.0607
 IR Inten    --     10.9922                 0.0189                 0.5302

                     16                     17                     18
                      A                      A                      A
 Frequencies --   1095.4368              1175.6222              1230.6296
 Red. masses --      1.4128                 1.4003                 1.3409
 Frc consts  --      0.9989                 1.1403                 1.1965
 IR Inten    --      2.4271               120.4266                19.3618

                     19                     20                     21
                      A                      A                      A
 Frequencies --   1315.5216              1326.8650              1364.0343
 Red. masses --      5.2616                 3.3376                 1.2372
 Frc consts  --      5.3649                 3.4621                 1.3562
 IR Inten    --     27.2495                71.9743                18.1600

                     22                     23                     24
                      A                      A                      A
 Frequencies --   1458.8740              1529.2413              1637.3727
 Red. masses --      2.6362                 2.7093                 6.6194
 Frc consts  --      3.3057                 3.7330                10.4560
 IR Inten    --     21.3972                41.3598               175.4921

                     25                     26                     27
                      A                      A                      A
 Frequencies --   1653.3937              3139.8820              3143.3043
 Red. masses --      6.3311                 1.0881                 1.0900
 Frc consts  --     10.1972                 6.3201                 6.3455
 IR Inten    --    103.8113                28.7074                 7.7497

                     28                     29                     30
                      A                      A                      A
 Frequencies --   3175.9136              3211.3634              3878.5011
 Red. masses --      1.0936                 1.0932                 1.0660
 Frc consts  --      6.4992                 6.6424                 9.4476
 IR Inten    --     11.3712                 2.4972                80.7132

 - Thermochemistry -
 -------------------
 Temperature   298.150 Kelvin.  Pressure   1.00000 Atm.
 Atom     1 has atomic number  6 and mass  12.00000

 Molecular mass:    95.03711 amu.
 Principal axes and moments of inertia in atomic units:
                           1         2         3
     Eigenvalues --   296.89661 674.65968 971.55629
           X            0.99978   0.02104   0.00003
           Y           -0.02104   0.99978   0.00006
           Z           -0.00003  -0.00006   1.00000
 This molecule is an asymmetric top.
 Rotational symmetry number  1.
 Rotational temperatures (Kelvin)      0.29173     0.12838     0.08915
 Rotational constants (GHZ):           6.07869     2.67504     1.85758
 Zero-point vibrational energy     244366.7 (Joules/Mol)
                                   58.40503 (Kcal/Mol)
 Warning -- explicit consideration of   6 degrees of freedom as
           vibrations may cause significant error
 Vibrational temperatures:    326.36   553.53   579.80   587.04   756.65
          (Kelvin)            780.96   972.00  1080.06  1193.32  1227.51
                             1227.90  1405.94  1449.00  1455.33  1539.02
                             1576.09  1691.46  1770.60  1892.74  1909.06
                             1962.54  2098.99  2200.23  2355.81  2378.86
                             4517.58  4522.51  4569.43  4620.43  5580.29

 Zero-point correction=                           0.093074 (Hartree/Particle)
 Thermal correction to Energy=                    0.098418
 Thermal correction to Enthalpy=                  0.099362
 Thermal correction to Gibbs Free Energy=         0.064195
 Sum of electronic and zero-point Energies=           -323.331754
 Sum of electronic and thermal Energies=              -323.326410
 Sum of electronic and thermal Enthalpies=            -323.325466
 Sum of electronic and thermal Free Energies=         -323.360633

                     E (Thermal)             CV                S
                      KCal/Mol        Cal/Mol-Kelvin    Cal/Mol-Kelvin
 Total                   61.758             20.653             74.015
 Electronic               0.000              0.000              0.000
 Translational            0.889              2.981             39.566
 Rotational               0.889              2.981             26.767
 Vibrational             59.981             14.691              7.681
 Vibration     1          0.650              1.800              1.904
 Vibration     2          0.754              1.503              1.021
 Vibration     3          0.768              1.464              0.952
 Vibration     4          0.773              1.453              0.934
 Vibration     5          0.881              1.193              0.596
 Vibration     6          0.898              1.155              0.559

 Optimization completed.
    -- Stationary point found.
 Normal termination of Gaussian 09 at Fri Aug 27 21:30:00 2021.
