 Gaussian 09, Revision E.01,
 Gaussian 09:  EM64L-G09RevE.01 30-Nov-2015

 -----------------------
 #p opt freq LC-wPBE/gen
 -----------------------

 ------------------------
 4HY_LC-wPBE_PC2_OPT_FREQ
 ------------------------
 Symbolic Z-matrix:
 Charge =  0 Multiplicity = 1

 SCF Done:  E(RLC-wPBE) =  -323.415476709     A.U. after   15 cycles
 SCF Done:  E(RLC-wPBE) =  -323.416854841     A.U. after   10 cycles
 SCF Done:  E(RLC-wPBE) =  -323.416888054     A.U. after    9 cycles
 Optimization completed.
    -- Stationary point found.
 Normal termination of Gaussian 09 at Fri Aug 27 21:25:08 2021.

 --------------------------------------------------------------------
 #P Geom=AllCheck Guess=TCheck SCRF=Check GenChk RLC-wPBE/ChkBas Freq
 --------------------------------------------------------------------

 Structure from the checkpoint file:  "4HY_LC-wPBE_PC2_OPT_FREQ.chk"
 ------------------------
 4HY_LC-wPBE_PC2_OPT_FREQ
 ------------------------
 Charge =  0 Multiplicity = 1

                         Standard orientation:
 ---------------------------------------------------------------------
 Center     Atomic      Atomic             Coordinates (Angstroms)
 Number     Number       Type             X           Y           Z
 ---------------------------------------------------------------------
      1          6           0       -1.137678    1.145087    0.000008
      2          6           0        0.242100    1.175962   -0.000060
      3          6           0        0.922267   -0.028936   -0.000011
      4          6           0        0.190244   -1.203171    0.000051
      5          6           0       -1.183385   -1.110314    0.000028
      6          7           0       -1.856664    0.034003    0.000045
      7          1           0       -1.693914    2.077341   -0.000062
      8          1           0        0.770353    2.121936   -0.000125
      9          1           0        0.693842   -2.159597    0.000103
     10          1           0       -1.781761   -2.015846    0.000144
     11          8           0        2.269258   -0.112582   -0.000034
     12          1           0        2.652778    0.767032   -0.000197
 ---------------------------------------------------------------------

 SCF Done:  E(RLC-wPBE) =  -323.416888054     A.U. after    1 cycles

 The electronic state is 1-A.
 Alpha  occ. eigenvalues --  -19.01472 -14.19302 -10.19698 -10.14916 -10.14676
 Alpha  occ. eigenvalues --  -10.12085 -10.11446  -1.22275  -1.09512  -0.94921
 Alpha  occ. eigenvalues --   -0.91842  -0.79411  -0.77112  -0.70373  -0.64478
 Alpha  occ. eigenvalues --   -0.61223  -0.58190  -0.57650  -0.55942  -0.53435
 Alpha  occ. eigenvalues --   -0.51061  -0.47622  -0.38078  -0.37722  -0.36859
 Alpha virt. eigenvalues --    0.05968   0.06457   0.07487   0.10792   0.11150
 Alpha virt. eigenvalues --    0.14245   0.15023   0.21106   0.22752   0.22898
 Alpha virt. eigenvalues --    0.24683   0.26168   0.27151   0.27950   0.28511

 Mulliken charges:
               1
     1  C    0.164453
     2  C   -0.202641
     3  C    0.342994
     4  C   -0.152875
     5  C    0.163927
     6  N   -0.361905
     7  H    0.057002
     8  H    0.029288
     9  H    0.052921
    10  H    0.059465
    11  O   -0.357928
    12  H    0.205299
 Sum of Mulliken charges =  -0.00000

 Dipole moment (field-independent basis, Debye):
    X=              2.3741    Y=              1.3279    Z=             -0.0003  Tot=              2.7202
 Quadrupole moment (field-independent basis, Debye-Ang):
   XX=            -43.6375   YY=            -32.9208   ZZ=            -42.7808
   XY=              4.6135   XZ=             -0.0007   YZ=             -0.0009

  Exact polarizability:  77.844   1.102  73.375  -0.001  -0.001  37.252
 Approx polarizability:  82.635   0.742  78.550  -0.001  -0.001  42.130

                      1                      2                      3
                      A                      A                      A
 Frequencies --    230.9030               397.3525               412.5055
 Red. masses --      5.9048                 1.8048                 1.3814
 Frc consts  --      0.1855                 0.1679                 0.1385
 IR Inten    --      0.5054                39.8512                75.4502

                      4                      5                      6
                      A                      A                      A
 Frequencies --    414.1262               532.0091               554.1782
 Red. masses --      3.9625                 8.4666                 2.6970
 Frc consts  --      0.4004                 1.4119                 0.4880
 IR Inten    --     11.3295                 0.2770                19.4351

                      7                      8                      9
                      A                      A                      A
 Frequencies --    683.8630               768.3988               856.5389
 Red. masses --      6.9911                 2.7128                 1.5907
 Frc consts  --      1.9263                 0.9437                 0.6876
 IR Inten    --      0.1229                 0.2522                42.1510

                     10                     11                     12
                      A                      A                      A
 Frequencies --    867.7648               878.4377              1010.4491
 Red. masses --      5.6040                 1.3583                 1.3953
 Frc consts  --      2.4863                 0.6176                 0.8393
 IR Inten    --     45.6771                14.7806                 0.5938

                     13                     14                     15
                      A                      A                      A
 Frequencies --   1032.2372              1044.5464              1095.2741
 Red. masses --      7.4404                 1.4430                 1.5608
 Frc consts  --      4.6710                 0.9277                 1.1032
 IR Inten    --      9.2914                 0.0419                 1.6053

                     16                     17                     18
                      A                      A                      A
 Frequencies --   1123.0398              1185.5165              1255.9011
 Red. masses --      1.3850                 1.5583                 1.3201
 Frc consts  --      1.0291                 1.2904                 1.2268
 IR Inten    --      2.0789               113.3252                20.5058

                     19                     20                     21
                      A                      A                      A
 Frequencies --   1302.3581              1345.1420              1388.1658
 Red. masses --      3.6770                 3.4301                 1.2334
 Frc consts  --      3.6746                 3.6567                 1.4004
 IR Inten    --     33.1539                71.9658                17.8065

                     22                     23                     24
                      A                      A                      A
 Frequencies --   1493.3281              1571.1809              1697.9345
 Red. masses --      2.6670                 2.8158                 6.8794
 Frc consts  --      3.5042                 4.0955                11.6854
 IR Inten    --     23.7899                64.1647               143.2417

                     25                     26                     27
                      A                      A                      A
 Frequencies --   1710.4935              3198.0246              3202.1124
 Red. masses --      6.5907                 1.0893                 1.0918
 Frc consts  --     11.3611                 6.5641                 6.5961
 IR Inten    --    126.7271                16.7970                10.0975

                     28                     29                     30
                      A                      A                      A
 Frequencies --   3227.5115              3259.1624              3901.9472
 Red. masses --      1.0960                 1.0953                 1.0660
 Frc consts  --      6.7265                 6.8549                 9.5621
 IR Inten    --      6.1497                 0.6615                89.4183

 - Thermochemistry -
 -------------------
 Temperature   298.150 Kelvin.  Pressure   1.00000 Atm.
 Atom     1 has atomic number  6 and mass  12.00000

 Molecular mass:    95.03711 amu.
 Principal axes and moments of inertia in atomic units:
                           1         2         3
     Eigenvalues --   296.20357 673.60405 969.80763
           X            0.99978   0.02111   0.00002
           Y           -0.02111   0.99978   0.00003
           Z           -0.00002  -0.00004   1.00000
 This molecule is an asymmetric top.
 Rotational symmetry number  1.
 Rotational temperatures (Kelvin)      0.29241     0.12858     0.08931
 Rotational constants (GHZ):           6.09291     2.67923     1.86093
 Zero-point vibrational energy     249064.9 (Joules/Mol)
                                   59.52794 (Kcal/Mol)
 Warning -- explicit consideration of   6 degrees of freedom as
           vibrations may cause significant error
 Vibrational temperatures:    332.22   571.70   593.50   595.83   765.44
          (Kelvin)            797.34   983.93  1105.55  1232.37  1248.52
                             1263.87  1453.81  1485.16  1502.87  1575.85
                             1615.80  1705.69  1806.96  1873.80  1935.36
                             1997.26  2148.56  2260.58  2442.95  2461.02
                             4601.24  4607.12  4643.66  4689.20  5614.02

 Zero-point correction=                           0.094864 (Hartree/Particle)
 Thermal correction to Energy=                    0.100114
 Thermal correction to Enthalpy=                  0.101058
 Thermal correction to Gibbs Free Energy=         0.066039
 Sum of electronic and zero-point Energies=           -323.322024
 Sum of electronic and thermal Energies=              -323.316774
 Sum of electronic and thermal Enthalpies=            -323.315830
 Sum of electronic and thermal Free Energies=         -323.350849

                     E (Thermal)             CV                S
                      KCal/Mol        Cal/Mol-Kelvin    Cal/Mol-Kelvin
 Total                   62.822             20.188             73.704
 Electronic               0.000              0.000              0.000
 Translational            0.889              2.981             39.566
 Rotational               0.889              2.981             26.762
 Vibrational             61.045             14.227              7.376
 Vibration     1          0.653              1.794              1.872
 Vibration     2          0.764              1.476              0.972
 Vibration     3          0.776              1.443              0.918
 Vibration     4          0.778              1.440              0.912
 Vibration     5          0.887              1.179              0.583
 Vibration     6          0.910              1.131              0.536

 Optimization completed.
    -- Stationary point found.
 Normal termination of Gaussian 09 at Fri Aug 27 21:26:01 2021.
