 Gaussian 09, Revision E.01,
 Gaussian 09:  EM64L-G09RevE.01 30-Nov-2015

 -------------------------
 #p opt freq CAM-B3LYP/gen
 -------------------------

 --------------------------
 4HY_CAM-B3LYP_PC2_OPT_FREQ
 --------------------------
 Symbolic Z-matrix:
 Charge =  0 Multiplicity = 1

 SCF Done:  E(RCAM-B3LYP) =  -323.487022113     A.U. after   13 cycles
 SCF Done:  E(RCAM-B3LYP) =  -323.488049968     A.U. after   10 cycles
 SCF Done:  E(RCAM-B3LYP) =  -323.488067238     A.U. after    9 cycles
 Optimization completed.
    -- Stationary point found.
 Normal termination of Gaussian 09 at Fri Aug 27 21:23:12 2021.

 ----------------------------------------------------------------------
 #P Geom=AllCheck Guess=TCheck SCRF=Check GenChk RCAM-B3LYP/ChkBas Freq
 ----------------------------------------------------------------------

 Structure from the checkpoint file:  "4HY_CAM-B3LYP_PC2_OPT_FREQ.chk"
 --------------------------
 4HY_CAM-B3LYP_PC2_OPT_FREQ
 --------------------------
 Charge =  0 Multiplicity = 1

                         Standard orientation:
 ---------------------------------------------------------------------
 Center     Atomic      Atomic             Coordinates (Angstroms)
 Number     Number       Type             X           Y           Z
 ---------------------------------------------------------------------
      1          6           0       -1.141570    1.147498    0.000027
      2          6           0        0.240675    1.178358   -0.000063
      3          6           0        0.923131   -0.027256   -0.000013
      4          6           0        0.192158   -1.203987    0.000053
      5          6           0       -1.184407   -1.114228   -0.000006
      6          7           0       -1.858498    0.032154    0.000046
      7          1           0       -1.698189    2.077013   -0.000047
      8          1           0        0.768813    2.122684   -0.000128
      9          1           0        0.696929   -2.158086    0.000129
     10          1           0       -1.780656   -2.018554    0.000152
     11          8           0        2.272503   -0.111993   -0.000027
     12          1           0        2.662646    0.765493   -0.000200
 ---------------------------------------------------------------------

 SCF Done:  E(RCAM-B3LYP) =  -323.488067238     A.U. after    1 cycles

 The electronic state is 1-A.
 Alpha  occ. eigenvalues --  -19.24882 -14.37949 -10.33505 -10.28823 -10.28594
 Alpha  occ. eigenvalues --  -10.26068 -10.25459  -1.17114  -1.03346  -0.88828
 Alpha  occ. eigenvalues --   -0.85517  -0.73471  -0.71279  -0.64594  -0.58820
 Alpha  occ. eigenvalues --   -0.55783  -0.52883  -0.51403  -0.50694  -0.48262
 Alpha  occ. eigenvalues --   -0.45220  -0.42854  -0.33149  -0.32744  -0.32111
 Alpha virt. eigenvalues --    0.02008   0.02555   0.03214   0.06581   0.07289
 Alpha virt. eigenvalues --    0.10672   0.11158   0.16271   0.17761   0.18007
 Alpha virt. eigenvalues --    0.19658   0.21263   0.22286   0.23062   0.23808

 Mulliken charges:
               1
     1  C    0.136195
     2  C   -0.181445
     3  C    0.351958
     4  C   -0.135741
     5  C    0.136015
     6  N   -0.351762
     7  H    0.060178
     8  H    0.032026
     9  H    0.056011
    10  H    0.063129
    11  O   -0.367598
    12  H    0.201033
 Sum of Mulliken charges =  -0.00000

 Dipole moment (field-independent basis, Debye):
    X=              2.3681    Y=              1.3187    Z=             -0.0003  Tot=              2.7105
 Quadrupole moment (field-independent basis, Debye-Ang):
   XX=            -44.3306   YY=            -33.6648   ZZ=            -43.2881
   XY=              4.5926   XZ=             -0.0008   YZ=             -0.0010

  Exact polarizability:  79.396   1.234  75.285  -0.001  -0.001  38.191
 Approx polarizability: 100.140   0.988  94.770  -0.001  -0.001  49.553

                      1                      2                      3
                      A                      A                      A
 Frequencies --    231.9079               392.6546               408.2217
 Red. masses --      5.9441                 1.2080                 2.2211
 Frc consts  --      0.1884                 0.1097                 0.2181
 IR Inten    --      0.5207                97.9263                15.5830

                      4                      5                      6
                      A                      A                      A
 Frequencies --    414.4801               536.6559               552.4307
 Red. masses --      3.9761                 8.5366                 2.6913
 Frc consts  --      0.4025                 1.4485                 0.4839
 IR Inten    --     10.9908                 0.1699                21.2497

                      7                      8                      9
                      A                      A                      A
 Frequencies --    689.2348               763.6333               847.1312
 Red. masses --      7.0065                 2.8496                 1.5773
 Frc consts  --      1.9610                 0.9790                 0.6669
 IR Inten    --      0.0733                 0.1921                41.0927

                     10                     11                     12
                      A                      A                      A
 Frequencies --    862.8921               871.0747               996.3868
 Red. masses --      5.6313                 1.3554                 1.3737
 Frc consts  --      2.4704                 0.6059                 0.8035
 IR Inten    --     46.8767                14.6832                 0.3389

                     13                     14                     15
                      A                      A                      A
 Frequencies --   1028.2118              1029.8988              1091.2800
 Red. masses --      7.6107                 1.4426                 1.6542
 Frc consts  --      4.7406                 0.9015                 1.1607
 IR Inten    --     14.3865                 0.0457                 0.3615

                     16                     17                     18
                      A                      A                      A
 Frequencies --   1118.9684              1189.7568              1253.2775
 Red. masses --      1.4570                 1.5090                 1.3407
 Frc consts  --      1.0749                 1.2585                 1.2407
 IR Inten    --      4.0800               116.7587                21.5896

                     19                     20                     21
                      A                      A                      A
 Frequencies --   1307.9185              1329.1649              1394.9625
 Red. masses --      4.2286                 3.4190                 1.2345
 Frc consts  --      4.2619                 3.5588                 1.4153
 IR Inten    --     40.0649                62.2683                18.6867

                     22                     23                     24
                      A                      A                      A
 Frequencies --   1483.1102              1555.9643              1664.9980
 Red. masses --      2.5024                 2.4708                 6.2811
 Frc consts  --      3.2430                 3.5245                10.2591
 IR Inten    --     23.4557                47.0562               151.2370

                     25                     26                     27
                      A                      A                      A
 Frequencies --   1678.3943              3176.7217              3182.0376
 Red. masses --      6.0738                 1.0884                 1.0909
 Frc consts  --     10.0809                 6.4714                 6.5082
 IR Inten    --    103.2763                15.6726                13.6081

                     28                     29                     30
                      A                      A                      A
 Frequencies --   3200.3191              3232.0910              3861.2498
 Red. masses --      1.0953                 1.0944                 1.0660
 Frc consts  --      6.6093                 6.7356                 9.3642
 IR Inten    --      8.7507                 1.4611                80.6521

 - Thermochemistry -
 -------------------
 Temperature   298.150 Kelvin.  Pressure   1.00000 Atm.
 Atom     1 has atomic number  6 and mass  12.00000

 Molecular mass:    95.03711 amu.
 Principal axes and moments of inertia in atomic units:
                           1         2         3
     Eigenvalues --   297.13771 675.57180 972.70951
           X            0.99978   0.02096   0.00002
           Y           -0.02096   0.99978   0.00003
           Z           -0.00002  -0.00003   1.00000
 This molecule is an asymmetric top.
 Rotational symmetry number  1.
 Rotational temperatures (Kelvin)      0.29149     0.12821     0.08904
 Rotational constants (GHZ):           6.07375     2.67143     1.85538
 Zero-point vibrational energy     247298.2 (Joules/Mol)
                                   59.10569 (Kcal/Mol)
 Warning -- explicit consideration of   6 degrees of freedom as
           vibrations may cause significant error
 Vibrational temperatures:    333.66   564.94   587.34   596.34   772.13
          (Kelvin)            794.82   991.65  1098.70  1218.83  1241.51
                             1253.28  1433.58  1479.37  1481.79  1570.11
                             1609.94  1711.79  1803.18  1881.80  1912.37
                             2007.04  2133.86  2238.68  2395.56  2414.83
                             4570.59  4578.24  4604.54  4650.25  5555.47

 Zero-point correction=                           0.094191 (Hartree/Particle)
 Thermal correction to Energy=                    0.099456
 Thermal correction to Enthalpy=                  0.100400
 Thermal correction to Gibbs Free Energy=         0.065356
 Sum of electronic and zero-point Energies=           -323.393876
 Sum of electronic and thermal Energies=              -323.388611
 Sum of electronic and thermal Enthalpies=            -323.387667
 Sum of electronic and thermal Free Energies=         -323.422712

                     E (Thermal)             CV                S
                      KCal/Mol        Cal/Mol-Kelvin    Cal/Mol-Kelvin
 Total                   62.410             20.285             73.757
 Electronic               0.000              0.000              0.000
 Translational            0.889              2.981             39.566
 Rotational               0.889              2.981             26.771
 Vibrational             60.632             14.323              7.421
 Vibration     1          0.653              1.792              1.864
 Vibration     2          0.760              1.486              0.990
 Vibration     3          0.773              1.452              0.933
 Vibration     4          0.778              1.439              0.911
 Vibration     5          0.892              1.169              0.573
 Vibration     6          0.908              1.134              0.539

 Optimization completed.
    -- Stationary point found.
 Normal termination of Gaussian 09 at Fri Aug 27 21:24:02 2021.
