 Gaussian 09, Revision E.01,
 Gaussian 09:  EM64L-G09RevE.01 30-Nov-2015

 --------------------
 #p opt freq M06L/gen
 --------------------

 ---------------------
 4HY_M06L_PC2_OPT_FREQ
 ---------------------
 Symbolic Z-matrix:
 Charge =  0 Multiplicity = 1

 SCF Done:  E(RM06L) =  -323.584048561     A.U. after   17 cycles
 SCF Done:  E(RM06L) =  -323.584689997     A.U. after   13 cycles
 SCF Done:  E(RM06L) =  -323.584703705     A.U. after    9 cycles
 Optimization completed.
    -- Stationary point found.
 Normal termination of Gaussian 09 at Fri Aug 27 21:18:00 2021.

 -----------------------------------------------------------------
 #P Geom=AllCheck Guess=TCheck SCRF=Check GenChk RM06L/ChkBas Freq
 -----------------------------------------------------------------

 Structure from the checkpoint file:  "4HY_M06L_PC2_OPT_FREQ.chk"
 ---------------------
 4HY_M06L_PC2_OPT_FREQ
 ---------------------
 Charge =  0 Multiplicity = 1

                         Standard orientation:
 ---------------------------------------------------------------------
 Center     Atomic      Atomic             Coordinates (Angstroms)
 Number     Number       Type             X           Y           Z
 ---------------------------------------------------------------------
      1          6           0       -1.142635    1.147223    0.000018
      2          6           0        0.241118    1.180472   -0.000059
      3          6           0        0.927471   -0.027067   -0.000013
      4          6           0        0.193844   -1.206494    0.000050
      5          6           0       -1.184185   -1.114226    0.000013
      6          7           0       -1.867025    0.031534    0.000046
      7          1           0       -1.698573    2.077830   -0.000052
      8          1           0        0.772515    2.122769   -0.000129
      9          1           0        0.698195   -2.160270    0.000119
     10          1           0       -1.778944   -2.019952    0.000152
     11          8           0        2.276975   -0.111654   -0.000035
     12          1           0        2.646504    0.772671   -0.000186
 ---------------------------------------------------------------------

 SCF Done:  E(RM06L) =  -323.584703705     A.U. after    1 cycles

 The electronic state is 1-A.
 Alpha  occ. eigenvalues --  -19.01168 -14.15709 -10.12843 -10.08223 -10.08009
 Alpha  occ. eigenvalues --  -10.05728 -10.05165  -1.05745  -0.90319  -0.76576
 Alpha  occ. eigenvalues --   -0.73004  -0.61377  -0.59388  -0.52776  -0.47065
 Alpha  occ. eigenvalues --   -0.44676  -0.41618  -0.39844  -0.39523  -0.37259
 Alpha  occ. eigenvalues --   -0.34346  -0.32085  -0.24681  -0.23359  -0.22359
 Alpha virt. eigenvalues --   -0.04072  -0.03597   0.01220   0.04426   0.05286
 Alpha virt. eigenvalues --    0.08420   0.08721   0.11099   0.13256   0.14545
 Alpha virt. eigenvalues --    0.18795   0.19312   0.19381   0.21781   0.22347

 Mulliken charges:
               1
     1  C    0.297711
     2  C   -0.135150
     3  C    0.529465
     4  C   -0.099562
     5  C    0.299235
     6  N   -0.536894
     7  H   -0.004807
     8  H   -0.058935
     9  H   -0.030778
    10  H   -0.000289
    11  O   -0.493618
    12  H    0.233621
 Sum of Mulliken charges =  -0.00000

 Dipole moment (field-independent basis, Debye):
    X=              2.4841    Y=              1.2375    Z=             -0.0002  Tot=              2.7753
 Quadrupole moment (field-independent basis, Debye-Ang):
   XX=            -43.1019   YY=            -33.7072   ZZ=            -41.9523
   XY=              4.3293   XZ=             -0.0006   YZ=             -0.0008

  Exact polarizability:  81.453   1.352  75.640  -0.001  -0.001  37.115
 Approx polarizability: 157.737   1.320 141.229  -0.002  -0.002  58.059

                      1                      2                      3
                      A                      A                      A
 Frequencies --    228.5908               388.7764               404.5562
 Red. masses --      6.1960                 2.2925                 3.9513
 Frc consts  --      0.1908                 0.2042                 0.3810
 IR Inten    --      0.5195                11.4787                10.9163

                      4                      5                      6
                      A                      A                      A
 Frequencies --    424.9119               528.2206               543.1498
 Red. masses --      1.1798                 8.4378                 2.7330
 Frc consts  --      0.1255                 1.3871                 0.4750
 IR Inten    --     92.0580                 0.3319                13.8756

                      7                      8                      9
                      A                      A                      A
 Frequencies --    682.5856               757.1058               831.5837
 Red. masses --      6.9950                 3.2828                 1.6203
 Frc consts  --      1.9202                 1.1087                 0.6602
 IR Inten    --      0.1259                 0.0050                36.3567

                     10                     11                     12
                      A                      A                      A
 Frequencies --    852.2589               856.9268               975.5283
 Red. masses --      5.6684                 1.3105                 1.2984
 Frc consts  --      2.4258                 0.5670                 0.7280
 IR Inten    --     43.5566                 5.7939                 0.0568

                     13                     14                     15
                      A                      A                      A
 Frequencies --   1007.1307              1010.7133              1075.7417
 Red. masses --      1.4360                 7.5166                 1.6962
 Frc consts  --      0.8582                 4.5240                 1.1565
 IR Inten    --      0.0221                14.2655                 0.1671

                     16                     17                     18
                      A                      A                      A
 Frequencies --   1101.8090              1200.1572              1242.9014
 Red. masses --      1.4826                 1.4427                 1.3803
 Frc consts  --      1.0604                 1.2244                 1.2563
 IR Inten    --      4.4636               120.2071                19.7503

                     19                     20                     21
                      A                      A                      A
 Frequencies --   1319.1071              1339.5801              1386.9373
 Red. masses --      3.5819                 4.1453                 1.2716
 Frc consts  --      3.6721                 4.3827                 1.4412
 IR Inten    --     81.9115                14.5670                23.4786

                     22                     23                     24
                      A                      A                      A
 Frequencies --   1464.8804              1533.5513              1629.9169
 Red. masses --      2.5371                 2.3657                 5.7663
 Frc consts  --      3.2076                 3.2779                 9.0256
 IR Inten    --     18.6426                37.2389               158.6434

                     25                     26                     27
                      A                      A                      A
 Frequencies --   1646.0449              3152.6119              3155.1779
 Red. masses --      5.5525                 1.0877                 1.0886
 Frc consts  --      8.8639                 6.3697                 6.3849
 IR Inten    --     81.0440                32.8675                12.8203

                     28                     29                     30
                      A                      A                      A
 Frequencies --   3182.6714              3218.4144              3820.0595
 Red. masses --      1.0940                 1.0931                 1.0661
 Frc consts  --      6.5289                 6.6712                 9.1658
 IR Inten    --     18.7818                 5.9949                48.5273

 - Thermochemistry -
 -------------------
 Temperature   298.150 Kelvin.  Pressure   1.00000 Atm.
 Atom     1 has atomic number  6 and mass  12.00000

 Molecular mass:    95.03711 amu.
 Principal axes and moments of inertia in atomic units:
                           1         2         3
     Eigenvalues --   297.68355 678.48699 976.17054
           X            0.99978   0.02089   0.00002
           Y           -0.02089   0.99978   0.00003
           Z           -0.00002  -0.00003   1.00000
 This molecule is an asymmetric top.
 Rotational symmetry number  1.
 Rotational temperatures (Kelvin)      0.29096     0.12766     0.08873
 Rotational constants (GHZ):           6.06262     2.65995     1.84880
 Zero-point vibrational energy     245004.8 (Joules/Mol)
                                   58.55755 (Kcal/Mol)
 Warning -- explicit consideration of   6 degrees of freedom as
           vibrations may cause significant error
 Vibrational temperatures:    328.89   559.36   582.07   611.35   759.99
          (Kelvin)            781.47   982.09  1089.31  1196.46  1226.21
                             1232.92  1403.57  1449.03  1454.19  1547.75
                             1585.26  1726.76  1788.26  1897.90  1927.35
                             1995.49  2107.63  2206.44  2345.08  2368.29
                             4535.90  4539.59  4579.15  4630.57  5496.21

 Zero-point correction=                           0.093317 (Hartree/Particle)
 Thermal correction to Energy=                    0.098624
 Thermal correction to Enthalpy=                  0.099568
 Thermal correction to Gibbs Free Energy=         0.064457
 Sum of electronic and zero-point Energies=           -323.491386
 Sum of electronic and thermal Energies=              -323.486080
 Sum of electronic and thermal Enthalpies=            -323.485136
 Sum of electronic and thermal Free Energies=         -323.520247

                     E (Thermal)             CV                S
                      KCal/Mol        Cal/Mol-Kelvin    Cal/Mol-Kelvin
 Total                   61.887             20.514             73.897
 Electronic               0.000              0.000              0.000
 Translational            0.889              2.981             39.566
 Rotational               0.889              2.981             26.780
 Vibrational             60.110             14.553              7.551
 Vibration     1          0.651              1.797              1.890
 Vibration     2          0.757              1.494              1.005
 Vibration     3          0.770              1.460              0.946
 Vibration     4          0.787              1.416              0.875
 Vibration     5          0.883              1.188              0.591
 Vibration     6          0.898              1.155              0.559

 Optimization completed.
    -- Stationary point found.
 Normal termination of Gaussian 09 at Fri Aug 27 21:18:48 2021.
