 Gaussian 09, Revision E.01,
 Gaussian 09:  EM64L-G09RevE.01 30-Nov-2015

 ------------------------
 #p opt freq TPSSTPSS/gen
 ------------------------

 -------------------------
 4HY_TPSSTPSS_PC2_OPT_FREQ
 -------------------------
 Symbolic Z-matrix:
 Charge =  0 Multiplicity = 1

 SCF Done:  E(RTPSS-TPSS) =  -323.690134237     A.U. after   15 cycles
 SCF Done:  E(RTPSS-TPSS) =  -323.690187534     A.U. after    9 cycles
 SCF Done:  E(RTPSS-TPSS) =  -323.690194573     A.U. after    8 cycles
 Optimization completed.
    -- Stationary point found.
 Normal termination of Gaussian 09 at Fri Aug 27 21:16:14 2021.

 ---------------------------------------------------------------------
 #P Geom=AllCheck Guess=TCheck SCRF=Check GenChk RTPSSTPSS/ChkBas Freq
 ---------------------------------------------------------------------

 Structure from the checkpoint file:  "4HY_TPSSTPSS_PC2_OPT_FREQ.chk"
 -------------------------
 4HY_TPSSTPSS_PC2_OPT_FREQ
 -------------------------
 Charge =  0 Multiplicity = 1

                         Standard orientation:
 ---------------------------------------------------------------------
 Center     Atomic      Atomic             Coordinates (Angstroms)
 Number     Number       Type             X           Y           Z
 ---------------------------------------------------------------------
      1          6           0       -1.152245    1.154816    0.000072
      2          6           0        0.240514    1.188765   -0.000068
      3          6           0        0.931489   -0.025412   -0.000014
      4          6           0        0.196849   -1.212957    0.000042
      5          6           0       -1.190734   -1.123668   -0.000071
      6          7           0       -1.880033    0.029529    0.000064
      7          1           0       -1.713191    2.086699   -0.000032
      8          1           0        0.770715    2.138006   -0.000158
      9          1           0        0.703900   -2.171403    0.000151
     10          1           0       -1.787802   -2.032559    0.000197
     11          8           0        2.295160   -0.112353   -0.000026
     12          1           0        2.670095    0.782117   -0.000154
 ---------------------------------------------------------------------

 SCF Done:  E(RTPSS-TPSS) =  -323.690194573     A.U. after    1 cycles

 The electronic state is 1-A.
 Alpha  occ. eigenvalues --  -18.93433 -14.09254 -10.07142 -10.02735 -10.02525
 Alpha  occ. eigenvalues --  -10.00470  -9.99899  -1.01433  -0.87591  -0.74388
 Alpha  occ. eigenvalues --   -0.71226  -0.60164  -0.58209  -0.52030  -0.46318
 Alpha  occ. eigenvalues --   -0.44355  -0.41239  -0.39464  -0.39117  -0.36739
 Alpha  occ. eigenvalues --   -0.33732  -0.32193  -0.24633  -0.23282  -0.22252
 Alpha virt. eigenvalues --   -0.04960  -0.04690  -0.01286   0.02179   0.03415
 Alpha virt. eigenvalues --    0.06939   0.07045   0.09395   0.11122   0.11827
 Alpha virt. eigenvalues --    0.15061   0.16464   0.17383   0.18390   0.19217

 Mulliken charges:
               1
     1  C    0.170064
     2  C   -0.181506
     3  C    0.349429
     4  C   -0.128370
     5  C    0.168727
     6  N   -0.376432
     7  H    0.054481
     8  H    0.017915
     9  H    0.037165
    10  H    0.057019
    11  O   -0.377217
    12  H    0.208725
 Sum of Mulliken charges =  -0.00000

 Dipole moment (field-independent basis, Debye):
    X=              2.3944    Y=              1.2584    Z=             -0.0002  Tot=              2.7049
 Quadrupole moment (field-independent basis, Debye-Ang):
   XX=            -43.7975   YY=            -33.6547   ZZ=            -42.9347
   XY=              4.4080   XZ=             -0.0005   YZ=             -0.0011

  Exact polarizability:  84.449   1.559  78.551  -0.001  -0.001  38.385
 Approx polarizability: 170.816   1.583 149.840  -0.002   0.000  63.300

                      1                      2                      3
                      A                      A                      A
 Frequencies --    219.7633               379.9382               390.6081
 Red. masses --      6.3060                 2.5399                 3.9863
 Frc consts  --      0.1794                 0.2160                 0.3583
 IR Inten    --      0.7476                 3.8517                10.4993

                      4                      5                      6
                      A                      A                      A
 Frequencies --    422.9452               512.1426               527.4994
 Red. masses --      1.1221                 8.4961                 2.7905
 Frc consts  --      0.1183                 1.3130                 0.4575
 IR Inten    --     97.9445                 0.2210                18.6125

                      7                      8                      9
                      A                      A                      A
 Frequencies --    662.5123               732.6090               810.4054
 Red. masses --      7.0253                 3.5665                 1.5480
 Frc consts  --      1.8168                 1.1278                 0.5990
 IR Inten    --      0.1005                 0.0082                39.1607

                     10                     11                     12
                      A                      A                      A
 Frequencies --    827.6817               840.3441               948.4239
 Red. masses --      5.8133                 1.3103                 1.2942
 Frc consts  --      2.3464                 0.5452                 0.6859
 IR Inten    --     45.9331                 8.3103                 0.0000

                     13                     14                     15
                      A                      A                      A
 Frequencies --    978.4616               987.0337              1059.1450
 Red. masses --      1.4312                 7.4076                 1.8103
 Frc consts  --      0.8073                 4.2520                 1.1965
 IR Inten    --      0.0378                14.2736                 0.0407

                     16                     17                     18
                      A                      A                      A
 Frequencies --   1082.3863              1171.5558              1222.1770
 Red. masses --      1.5557                 1.4039                 1.3943
 Frc consts  --      1.0739                 1.1353                 1.2271
 IR Inten    --      6.6253               130.4339                22.9904

                     19                     20                     21
                      A                      A                      A
 Frequencies --   1278.0070              1304.9162              1366.8747
 Red. masses --      3.5835                 4.7996                 1.2384
 Frc consts  --      3.4485                 4.8153                 1.3632
 IR Inten    --     61.4153                13.3221                17.6918

                     22                     23                     24
                      A                      A                      A
 Frequencies --   1434.3971              1504.3283              1590.4507
 Red. masses --      2.4168                 2.1574                 5.5304
 Frc consts  --      2.9298                 2.8765                 8.2422
 IR Inten    --     20.3457                30.7323               147.3704

                     25                     26                     27
                      A                      A                      A
 Frequencies --   1605.8190              3111.7906              3120.5132
 Red. masses --      5.3547                 1.0863                 1.0887
 Frc consts  --      8.1354                 6.1974                 6.2461
 IR Inten    --     64.3922                15.5219                26.9223

                     28                     29                     30
                      A                      A                      A
 Frequencies --   3130.9662              3164.1572              3711.7186
 Red. masses --      1.0947                 1.0932                 1.0658
 Frc consts  --      6.3228                 6.4488                 8.6509
 IR Inten    --     17.5562                 6.4603                44.5309

 - Thermochemistry -
 -------------------
 Temperature   298.150 Kelvin.  Pressure   1.00000 Atm.
 Atom     1 has atomic number  6 and mass  12.00000

 Molecular mass:    95.03711 amu.
 Principal axes and moments of inertia in atomic units:
                           1         2         3
     Eigenvalues --   301.62435 688.40762 990.03197
           X            0.99978   0.02081   0.00002
           Y           -0.02081   0.99978   0.00001
           Z           -0.00002  -0.00001   1.00000
 This molecule is an asymmetric top.
 Rotational symmetry number  1.
 Rotational temperatures (Kelvin)      0.28716     0.12582     0.08749
 Rotational constants (GHZ):           5.98341     2.62162     1.82291
 Zero-point vibrational energy     239848.7 (Joules/Mol)
                                   57.32521 (Kcal/Mol)
 Warning -- explicit consideration of   6 degrees of freedom as
           vibrations may cause significant error
 Vibrational temperatures:    316.19   546.65   562.00   608.52   736.86
          (Kelvin)            758.95   953.21  1054.06  1165.99  1190.85
                             1209.07  1364.57  1407.79  1420.12  1523.87
                             1557.31  1685.61  1758.44  1838.76  1877.48
                             1966.63  2063.77  2164.39  2288.30  2310.41
                             4477.17  4489.72  4504.76  4552.51  5340.33

 Zero-point correction=                           0.091354 (Hartree/Particle)
 Thermal correction to Energy=                    0.096778
 Thermal correction to Enthalpy=                  0.097722
 Thermal correction to Gibbs Free Energy=         0.062403
 Sum of electronic and zero-point Energies=           -323.598841
 Sum of electronic and thermal Energies=              -323.593417
 Sum of electronic and thermal Enthalpies=            -323.592472
 Sum of electronic and thermal Free Energies=         -323.627792

                     E (Thermal)             CV                S
                      KCal/Mol        Cal/Mol-Kelvin    Cal/Mol-Kelvin
 Total                   60.729             21.061             74.335
 Electronic               0.000              0.000              0.000
 Translational            0.889              2.981             39.566
 Rotational               0.889              2.981             26.822
 Vibrational             58.952             15.099              7.947
 Vibration     1          0.647              1.811              1.961
 Vibration     2          0.750              1.513              1.039
 Vibration     3          0.758              1.490              0.998
 Vibration     4          0.785              1.420              0.882
 Vibration     5          0.867              1.223              0.628
 Vibration     6          0.882              1.189              0.593

 Optimization completed.
    -- Stationary point found.
 Normal termination of Gaussian 09 at Fri Aug 27 21:17:00 2021.
