 Gaussian 09, Revision E.01,
 Gaussian 09:  EM64L-G09RevE.01 30-Nov-2015

 -------------------------
 #p opt freq BHandHLYP/gen
 -------------------------

 --------------------------
 4HY_BHandHLYP_PC2_OPT_FREQ
 --------------------------
 Symbolic Z-matrix:
 Charge =  0 Multiplicity = 1

 SCF Done:  E(RBHandHLYP) =  -323.446196573     A.U. after   13 cycles
 SCF Done:  E(RBHandHLYP) =  -323.448890712     A.U. after   11 cycles
 SCF Done:  E(RBHandHLYP) =  -323.448948802     A.U. after    9 cycles
 SCF Done:  E(RBHandHLYP) =  -323.448950780     A.U. after    7 cycles
 Optimization completed.
    -- Stationary point found.
 Normal termination of Gaussian 09 at Fri Aug 27 21:21:29 2021.

 ----------------------------------------------------------------------
 #P Geom=AllCheck Guess=TCheck SCRF=Check GenChk RBHandHLYP/ChkBas Freq
 ----------------------------------------------------------------------

 Structure from the checkpoint file:  "4HY_BHandHLYP_PC2_OPT_FREQ.chk"
 --------------------------
 4HY_BHandHLYP_PC2_OPT_FREQ
 --------------------------
 Charge =  0 Multiplicity = 1

                         Standard orientation:
 ---------------------------------------------------------------------
 Center     Atomic      Atomic             Coordinates (Angstroms)
 Number     Number       Type             X           Y           Z
 ---------------------------------------------------------------------
      1          6           0       -1.138337    1.142031   -0.000056
      2          6           0        0.240316    1.174534   -0.000060
      3          6           0        0.921561   -0.027080   -0.000029
      4          6           0        0.192178   -1.200057    0.000049
      5          6           0       -1.180664   -1.108992    0.000122
      6          7           0       -1.850562    0.031926    0.000044
      7          1           0       -1.690859    2.065096   -0.000057
      8          1           0        0.764153    2.112940   -0.000101
      9          1           0        0.692196   -2.148492    0.000062
     10          1           0       -1.772362   -2.007157    0.000139
     11          8           0        2.262188   -0.110455   -0.000044
     12          1           0        2.652977    0.755158   -0.000164
 ---------------------------------------------------------------------

 SCF Done:  E(RBHandHLYP) =  -323.448950780     A.U. after    1 cycles

 The electronic state is 1-A.
 Alpha  occ. eigenvalues --  -19.72704 -14.78735 -10.67190 -10.62421 -10.62184
 Alpha  occ. eigenvalues --  -10.59380 -10.58770  -1.23197  -1.07986  -0.92179
 Alpha  occ. eigenvalues --   -0.88520  -0.75394  -0.73180  -0.65741  -0.59810
 Alpha  occ. eigenvalues --   -0.56546  -0.53627  -0.51603  -0.51090  -0.49145
 Alpha  occ. eigenvalues --   -0.44948  -0.43101  -0.32942  -0.31594  -0.31005
 Alpha virt. eigenvalues --    0.01984   0.02675   0.02783   0.06051   0.06730
 Alpha virt. eigenvalues --    0.10120   0.10666   0.15801   0.17751   0.17939
 Alpha virt. eigenvalues --    0.19242   0.20729   0.21870   0.22595   0.23240

 Mulliken charges:
               1
     1  C    0.216934
     2  C   -0.173977
     3  C    0.390224
     4  C   -0.124963
     5  C    0.215271
     6  N   -0.421618
     7  H    0.036266
     8  H    0.006317
     9  H    0.029400
    10  H    0.038736
    11  O   -0.414884
    12  H    0.202295
 Sum of Mulliken charges =  -0.00000

 Dipole moment (field-independent basis, Debye):
    X=              2.3346    Y=              1.3207    Z=             -0.0002  Tot=              2.6823
 Quadrupole moment (field-independent basis, Debye-Ang):
   XX=            -43.9731   YY=            -33.3770   ZZ=            -43.1472
   XY=              4.5783   XZ=             -0.0006   YZ=             -0.0006

  Exact polarizability:  76.819   1.182  73.378  -0.001  -0.002  37.732
 Approx polarizability:  99.029   0.958  94.518  -0.002  -0.003  50.165

                      1                      2                      3
                      A                      A                      A
 Frequencies --    239.6710               392.1580               422.0456
 Red. masses --      5.8468                 1.1293                 2.5938
 Frc consts  --      0.1979                 0.1023                 0.2722
 IR Inten    --      0.3603               114.2041                 2.7942

                      4                      5                      6
                      A                      A                      A
 Frequencies --    425.8879               549.4796               569.6301
 Red. masses --      3.9888                 8.5358                 2.7161
 Frc consts  --      0.4263                 1.5184                 0.5193
 IR Inten    --     11.0543                 0.1940                21.9936

                      7                      8                      9
                      A                      A                      A
 Frequencies --    706.3832               784.6143               873.0035
 Red. masses --      7.0100                 2.9126                 1.5553
 Frc consts  --      2.0609                 1.0564                 0.6984
 IR Inten    --      0.0590                 0.0525                43.6358

                     10                     11                     12
                      A                      A                      A
 Frequencies --    882.5489               897.5895              1028.4376
 Red. masses --      5.6039                 1.3542                 1.3683
 Frc consts  --      2.5717                 0.6428                 0.8527
 IR Inten    --     46.4931                16.5137                 0.3883

                     13                     14                     15
                      A                      A                      A
 Frequencies --   1052.4241              1064.6379              1119.7655
 Red. masses --      7.6169                 1.4360                 1.6902
 Frc consts  --      4.9706                 0.9590                 1.2487
 IR Inten    --     16.1685                 0.0472                 0.2416

                     16                     17                     18
                      A                      A                      A
 Frequencies --   1146.1705              1219.8615              1287.5384
 Red. masses --      1.4903                 1.6672                 1.3435
 Frc consts  --      1.1535                 1.4617                 1.3122
 IR Inten    --      3.9366               105.6232                23.0516

                     19                     20                     21
                      A                      A                      A
 Frequencies --   1332.5944              1364.8904              1437.4905
 Red. masses --      3.3277                 3.5625                 1.2330
 Frc consts  --      3.4817                 3.9102                 1.5012
 IR Inten    --     47.1094                69.0223                21.7222

                     22                     23                     24
                      A                      A                      A
 Frequencies --   1520.3620              1600.8211              1704.7023
 Red. masses --      2.4081                 2.4108                 6.0076
 Frc consts  --      3.2796                 3.6400                10.2860
 IR Inten    --     26.5540                51.9272               158.7395

                     25                     26                     27
                      A                      A                      A
 Frequencies --   1718.2489              3251.5852              3257.7084
 Red. masses --      5.8259                 1.0882                 1.0906
 Frc consts  --     10.1341                 6.7787                 6.8195
 IR Inten    --    112.0409                14.3933                16.9087

                     28                     29                     30
                      A                      A                      A
 Frequencies --   3272.6985              3303.8896              3997.0051
 Red. masses --      1.0957                 1.0945                 1.0662
 Frc consts  --      6.9145                 7.0393                10.0364
 IR Inten    --     10.3229                 2.1155                88.3517

 - Thermochemistry -
 -------------------
 Temperature   298.150 Kelvin.  Pressure   1.00000 Atm.
 Atom     1 has atomic number  6 and mass  12.00000

 Molecular mass:    95.03711 amu.
 Principal axes and moments of inertia in atomic units:
                           1         2         3
     Eigenvalues --   294.59964 670.16804 964.76768
           X            0.99978   0.02077   0.00003
           Y           -0.02077   0.99978   0.00006
           Z           -0.00002  -0.00006   1.00000
 This molecule is an asymmetric top.
 Rotational symmetry number  1.
 Rotational temperatures (Kelvin)      0.29401     0.12924     0.08978
 Rotational constants (GHZ):           6.12608     2.69297     1.87065
 Zero-point vibrational energy     253750.9 (Joules/Mol)
                                   60.64793 (Kcal/Mol)
 Warning -- explicit consideration of   6 degrees of freedom as
           vibrations may cause significant error
 Vibrational temperatures:    344.83   564.23   607.23   612.76   790.58
          (Kelvin)            819.57  1016.33  1128.88  1256.06  1269.79
                             1291.43  1479.69  1514.20  1531.77  1611.09
                             1649.08  1755.11  1852.48  1917.30  1963.77
                             2068.23  2187.46  2303.22  2452.68  2472.17
                             4678.30  4687.11  4708.68  4753.55  5750.79

 Zero-point correction=                           0.096649 (Hartree/Particle)
 Thermal correction to Energy=                    0.101805
 Thermal correction to Enthalpy=                  0.102749
 Thermal correction to Gibbs Free Energy=         0.067885
 Sum of electronic and zero-point Energies=           -323.352302
 Sum of electronic and thermal Energies=              -323.347146
 Sum of electronic and thermal Enthalpies=            -323.346202
 Sum of electronic and thermal Free Energies=         -323.381066

                     E (Thermal)             CV                S
                      KCal/Mol        Cal/Mol-Kelvin    Cal/Mol-Kelvin
 Total                   63.883             19.734             73.377
 Electronic               0.000              0.000              0.000
 Translational            0.889              2.981             39.566
 Rotational               0.889              2.981             26.746
 Vibrational             62.106             13.772              7.065
 Vibration     1          0.657              1.780              1.805
 Vibration     2          0.760              1.487              0.992
 Vibration     3          0.784              1.422              0.885
 Vibration     4          0.788              1.414              0.872
 Vibration     5          0.905              1.141              0.545
 Vibration     6          0.926              1.097              0.505

 Optimization completed.
    -- Stationary point found.
 Normal termination of Gaussian 09 at Fri Aug 27 21:22:10 2021.
