 Gaussian 09, Revision E.01,
 Gaussian 09:  EM64L-G09RevE.01 30-Nov-2015

 --------------------
 #p opt freq BLYP/gen
 --------------------

 ---------------------
 4HY_BLYP_PC2_OPT_FREQ
 ---------------------
 Symbolic Z-matrix:
 Charge =  0 Multiplicity = 1

 SCF Done:  E(RB-LYP) =  -323.546348626     A.U. after   15 cycles
 SCF Done:  E(RB-LYP) =  -323.546689203     A.U. after   11 cycles
 SCF Done:  E(RB-LYP) =  -323.546710097     A.U. after    9 cycles
 SCF Done:  E(RB-LYP) =  -323.546712415     A.U. after    8 cycles
 Optimization completed.
    -- Stationary point found.
 Normal termination of Gaussian 09 at Fri Aug 27 21:14:40 2021.

 -----------------------------------------------------------------
 #P Geom=AllCheck Guess=TCheck SCRF=Check GenChk RBLYP/ChkBas Freq
 -----------------------------------------------------------------

 Structure from the checkpoint file:  "4HY_BLYP_PC2_OPT_FREQ.chk"
 ---------------------
 4HY_BLYP_PC2_OPT_FREQ
 ---------------------
 Charge =  0 Multiplicity = 1

                         Standard orientation:
 ---------------------------------------------------------------------
 Center     Atomic      Atomic             Coordinates (Angstroms)
 Number     Number       Type             X           Y           Z
 ---------------------------------------------------------------------
      1          6           0       -1.157588    1.160006   -0.000070
      2          6           0        0.240430    1.193259   -0.000063
      3          6           0        0.934272   -0.024931   -0.000034
      4          6           0        0.197146   -1.216731    0.000050
      5          6           0       -1.195914   -1.129164    0.000153
      6          7           0       -1.886055    0.029195    0.000050
      7          1           0       -1.719397    2.095034   -0.000061
      8          1           0        0.771741    2.144940   -0.000105
      9          1           0        0.706438   -2.177118    0.000046
     10          1           0       -1.793357   -2.041580    0.000141
     11          8           0        2.305034   -0.112803   -0.000055
     12          1           0        2.686605    0.782148   -0.000141
 ---------------------------------------------------------------------

 SCF Done:  E(RB-LYP) =  -323.546712415     A.U. after    1 cycles

 The electronic state is 1-A.
 Alpha  occ. eigenvalues --  -18.82396 -13.99778  -9.99407  -9.94925  -9.94724
 Alpha  occ. eigenvalues --   -9.92673  -9.92120  -0.98407  -0.84940  -0.72098
 Alpha  occ. eigenvalues --   -0.68936  -0.58538  -0.56561  -0.50764  -0.45194
 Alpha  occ. eigenvalues --   -0.43065  -0.40228  -0.38469  -0.38018  -0.35843
 Alpha  occ. eigenvalues --   -0.32827  -0.31536  -0.24014  -0.22720  -0.21461
 Alpha virt. eigenvalues --   -0.05245  -0.04918  -0.02357   0.01258   0.02526
 Alpha virt. eigenvalues --    0.06013   0.06071   0.08428   0.10127   0.10862
 Alpha virt. eigenvalues --    0.13827   0.15345   0.16246   0.17176   0.18082

 Mulliken charges:
               1
     1  C    0.096072
     2  C   -0.159863
     3  C    0.325957
     4  C   -0.114080
     5  C    0.095917
     6  N   -0.321207
     7  H    0.065164
     8  H    0.034169
     9  H    0.055504
    10  H    0.068620
    11  O   -0.341632
    12  H    0.195380
 Sum of Mulliken charges =   0.00000

 Dipole moment (field-independent basis, Debye):
    X=              2.3901    Y=              1.2612    Z=             -0.0002  Tot=              2.7025
 Quadrupole moment (field-independent basis, Debye-Ang):
   XX=            -44.5772   YY=            -34.3118   ZZ=            -43.4316
   XY=              4.4409   XZ=             -0.0003   YZ=             -0.0004

  Exact polarizability:  86.377   1.639  80.398  -0.002  -0.003  39.416
 Approx polarizability: 180.335   1.943 158.990  -0.004  -0.007  67.226

                      1                      2                      3
                      A                      A                      A
 Frequencies --    217.4245               377.5604               395.1985
 Red. masses --      6.2222                 2.2730                 4.0380
 Frc consts  --      0.1733                 0.1909                 0.3716
 IR Inten    --      0.7194                11.7650                 9.8354

                      4                      5                      6
                      A                      A                      A
 Frequencies --    399.2871               515.0659               521.2869
 Red. masses --      1.1805                 8.6743                 2.7306
 Frc consts  --      0.1109                 1.3558                 0.4372
 IR Inten    --     88.5410                 0.0999                20.3350

                      7                      8                      9
                      A                      A                      A
 Frequencies --    662.2748               721.8206               795.1249
 Red. masses --      7.0414                 3.2784                 1.5667
 Frc consts  --      1.8196                 1.0064                 0.5836
 IR Inten    --      0.0352                 0.1147                36.7067

                     10                     11                     12
                      A                      A                      A
 Frequencies --    818.1928               822.9187               930.1540
 Red. masses --      5.8426                 1.3307                 1.3148
 Frc consts  --      2.3044                 0.5309                 0.6702
 IR Inten    --     47.4241                10.2123                 0.0065

                     13                     14                     15
                      A                      A                      A
 Frequencies --    959.0737               973.2668              1045.3688
 Red. masses --      1.4419                 7.2304                 1.8469
 Frc consts  --      0.7814                 4.0353                 1.1891
 IR Inten    --      0.0414                16.6061                 0.0707

                     16                     17                     18
                      A                      A                      A
 Frequencies --   1069.9031              1154.5214              1203.3815
 Red. masses --      1.5791                 1.4664                 1.3911
 Frc consts  --      1.0650                 1.1516                 1.1869
 IR Inten    --      6.4693               126.8173                23.2351

                     19                     20                     21
                      A                      A                      A
 Frequencies --   1249.3479              1272.9100              1348.8447
 Red. masses --      4.0051                 4.0518                 1.2353
 Frc consts  --      3.6832                 3.8680                 1.3242
 IR Inten    --     61.5479                10.8221                18.3488

                     22                     23                     24
                      A                      A                      A
 Frequencies --   1411.9293              1475.1172              1555.0329
 Red. masses --      2.3522                 2.0767                 5.3839
 Frc consts  --      2.7628                 2.6624                 7.6706
 IR Inten    --     19.6572                23.3806               150.3720

                     25                     26                     27
                      A                      A                      A
 Frequencies --   1571.4987              3069.5259              3075.3856
 Red. masses --      5.1893                 1.0864                 1.0890
 Frc consts  --      7.5506                 6.0309                 6.0685
 IR Inten    --     56.4926                18.2702                22.1702

                     28                     29                     30
                      A                      A                      A
 Frequencies --   3090.1718              3123.8133              3661.9775
 Red. masses --      1.0936                 1.0924                 1.0657
 Frc consts  --      6.1527                 6.2808                 8.4202
 IR Inten    --     16.8243                 5.4194                43.7811

 - Thermochemistry -
 -------------------
 Temperature   298.150 Kelvin.  Pressure   1.00000 Atm.
 Atom     1 has atomic number  6 and mass  12.00000

 Molecular mass:    95.03711 amu.
 Principal axes and moments of inertia in atomic units:
                           1         2         3
     Eigenvalues --   303.97908 693.90566 997.88474
           X            0.99978   0.02074   0.00003
           Y           -0.02074   0.99978   0.00006
           Z           -0.00003  -0.00006   1.00000
 This molecule is an asymmetric top.
 Rotational symmetry number  1.
 Rotational temperatures (Kelvin)      0.28493     0.12482     0.08680
 Rotational constants (GHZ):           5.93706     2.60085     1.80857
 Zero-point vibrational energy     236187.0 (Joules/Mol)
                                   56.45004 (Kcal/Mol)
 Warning -- explicit consideration of   6 degrees of freedom as
           vibrations may cause significant error
 Vibrational temperatures:    312.82   543.22   568.60   574.48   741.06
          (Kelvin)            750.01   952.86  1038.54  1144.01  1177.20
                             1184.00  1338.28  1379.89  1400.31  1504.05
                             1539.35  1661.10  1731.40  1797.53  1831.43
                             1940.68  2031.45  2122.36  2237.34  2261.03
                             4416.36  4424.79  4446.06  4494.47  5268.76

 Zero-point correction=                           0.089959 (Hartree/Particle)
 Thermal correction to Energy=                    0.095445
 Thermal correction to Enthalpy=                  0.096389
 Thermal correction to Gibbs Free Energy=         0.060965
 Sum of electronic and zero-point Energies=           -323.456754
 Sum of electronic and thermal Energies=              -323.451268
 Sum of electronic and thermal Enthalpies=            -323.450324
 Sum of electronic and thermal Free Energies=         -323.485748

                     E (Thermal)             CV                S
                      KCal/Mol        Cal/Mol-Kelvin    Cal/Mol-Kelvin
 Total                   59.892             21.385             74.556
 Electronic               0.000              0.000              0.000
 Translational            0.889              2.981             39.566
 Rotational               0.889              2.981             26.845
 Vibrational             58.115             15.423              8.145
 Vibration     1          0.646              1.815              1.980
 Vibration     2          0.748              1.518              1.049
 Vibration     3          0.762              1.480              0.980
 Vibration     4          0.765              1.472              0.965
 Vibration     5          0.870              1.217              0.622
 Vibration     6          0.876              1.203              0.607

 Optimization completed.
    -- Stationary point found.
 Normal termination of Gaussian 09 at Fri Aug 27 21:15:19 2021.
