 Gaussian 09, Revision E.01,
 Gaussian 09:  EM64L-G09RevE.01 30-Nov-2015

 ----------------------------------------------------------------------
 #p opt freq CCSD/gen SCF(novaracc,noincfock) int=acc2e=12 geom=checkpo
 int
 ----------------------------------------------------------------------

 --------------------
 HY_CCSD_PC2_OPT_FREQ
 --------------------
 Structure from the checkpoint file:  "HY_CCSD_PC2_OPT_FREQ.chk"
 Charge =  0 Multiplicity = 1

 SCF Done:  E(RHF) =  -321.683251040     A.U. after   13 cycles
 E2 =    -0.1198388202D+01 EUMP2 =    -0.32288163924141D+03
 SCF Done:  E(RHF) =  -321.684477417     A.U. after   10 cycles
 E2 =    -0.1197164077D+01 EUMP2 =    -0.32288164149372D+03
 SCF Done:  E(RHF) =  -321.684533305     A.U. after    9 cycles
 E2 =    -0.1197101320D+01 EUMP2 =    -0.32288163462468D+03
 SCF Done:  E(RHF) =  -321.684529396     A.U. after    8 cycles
 E2 =    -0.1197097671D+01 EUMP2 =    -0.32288162706697D+03
 Optimization completed.
    -- Stationary point found.
 Normal termination of Gaussian 09 at Fri Sep  3 20:12:31 2021.

 ---------------------------------------------------------------------
 #P Geom=AllCheck Guess=TCheck SCRF=Check GenChk RCCSD(FC)/ChkBas Freq
 ---------------------------------------------------------------------

 Structure from the checkpoint file:  "HY_CCSD_PC2_OPT_FREQ.chk"
 --------------------
 HY_CCSD_PC2_OPT_FREQ
 --------------------
 Charge =  0 Multiplicity = 1

                         Standard orientation:
 ---------------------------------------------------------------------
 Center     Atomic      Atomic             Coordinates (Angstroms)
 Number     Number       Type             X           Y           Z
 ---------------------------------------------------------------------
      1          8           0        0.016738    2.246857    0.000000
      2          7           0       -1.177296    0.303907    0.000000
      3          6           0       -0.000000    0.897412    0.000000
      4          6           0        1.222968    0.221904    0.000000
      5          6           0       -1.189239   -1.035937   -0.000000
      6          6           0        1.186198   -1.156353   -0.000000
      7          6           0       -0.046671   -1.810941   -0.000000
      8          1           0       -0.902458    2.524836    0.000000
      9          1           0        2.145033    0.778507    0.000000
     10          1           0       -2.166757   -1.495326   -0.000000
     11          1           0        2.106256   -1.720572   -0.000000
     12          1           0       -0.114445   -2.886152   -0.000000
 ---------------------------------------------------------------------

 SCF Done:  E(RHF) =  -321.684529396     A.U. after    1 cycles
 E2 =    -0.1197097691D+01 EUMP2 =    -0.32288162708712D+03
 SCF Done:  E(RHF) =  -321.684486078     A.U. after    7 cycles
 E2 =    -0.1197150656D+01 EUMP2 =    -0.32288163673364D+03
 SCF Done:  E(RHF) =  -321.684570431     A.U. after    8 cycles
 E2 =    -0.1197044896D+01 EUMP2 =    -0.32288161532703D+03
 SCF Done:  E(RHF) =  -321.684503444     A.U. after    8 cycles
 E2 =    -0.1197128047D+01 EUMP2 =    -0.32288163149109D+03
 SCF Done:  E(RHF) =  -321.684553525     A.U. after    9 cycles
 E2 =    -0.1197067427D+01 EUMP2 =    -0.32288162095132D+03
 SCF Done:  E(RHF) =  -321.684529290     A.U. after    6 cycles
 E2 =    -0.1197097764D+01 EUMP2 =    -0.32288162705428D+03
 E2 =    -0.1197058553D+01 EUMP2 =    -0.32288161982063D+03
 E2 =    -0.1197136982D+01 EUMP2 =    -0.32288163262390D+03
 E2 =    -0.1197111034D+01 EUMP2 =    -0.32288162373832D+03
 E2 =    -0.1197084379D+01 EUMP2 =    -0.32288162816808D+03
 E2 =    -0.1197097776D+01 EUMP2 =    -0.32288162695948D+03
 E2 =    -0.1197120036D+01 EUMP2 =    -0.32288163438678D+03
 E2 =    -0.1197075401D+01 EUMP2 =    -0.32288161716060D+03
 E2 =    -0.1197091679D+01 EUMP2 =    -0.32288162649937D+03
 E2 =    -0.1197103940D+01 EUMP2 =    -0.32288162510545D+03
 E2 =    -0.1197097828D+01 EUMP2 =    -0.32288162680007D+03
 E2 =    -0.1197095707D+01 EUMP2 =    -0.32288162131104D+03
 E2 =    -0.1197099839D+01 EUMP2 =    -0.32288163026753D+03
 E2 =    -0.1197110094D+01 EUMP2 =    -0.32288163023331D+03
 E2 =    -0.1197085345D+01 EUMP2 =    -0.32288162125079D+03
 E2 =    -0.1197097788D+01 EUMP2 =    -0.32288162691227D+03
 SCF Done:  E(RHF) =  -321.684536667     A.U. after    8 cycles
 E2 =    -0.1197082488D+01 EUMP2 =    -0.32288161915533D+03
 SCF Done:  E(RHF) =  -321.684519179     A.U. after    9 cycles
 E2 =    -0.1197113107D+01 EUMP2 =    -0.32288163228554D+03
 SCF Done:  E(RHF) =  -321.684543930     A.U. after    8 cycles
 E2 =    -0.1197078332D+01 EUMP2 =    -0.32288162226182D+03
 SCF Done:  E(RHF) =  -321.684512356     A.U. after    8 cycles
 E2 =    -0.1197117076D+01 EUMP2 =    -0.32288162943182D+03
 SCF Done:  E(RHF) =  -321.684529028     A.U. after    7 cycles
 E2 =    -0.1197097827D+01 EUMP2 =    -0.32288162685462D+03
 SCF Done:  E(RHF) =  -321.684522660     A.U. after    8 cycles
 E2 =    -0.1197103120D+01 EUMP2 =    -0.32288162578031D+03
 SCF Done:  E(RHF) =  -321.684533373     A.U. after    8 cycles
 E2 =    -0.1197092455D+01 EUMP2 =    -0.32288162582794D+03
 SCF Done:  E(RHF) =  -321.684539151     A.U. after    8 cycles
 E2 =    -0.1197079365D+01 EUMP2 =    -0.32288161851621D+03
 SCF Done:  E(RHF) =  -321.684516973     A.U. after    8 cycles
 E2 =    -0.1197116113D+01 EUMP2 =    -0.32288163308598D+03

 Alpha  occ. eigenvalues --  -20.58675 -15.55942 -11.33908 -11.27939 -11.26105
 Alpha  occ. eigenvalues --  -11.23432 -11.23052  -1.42775  -1.25823  -1.09654
 Alpha  occ. eigenvalues --   -1.02950  -0.88143  -0.85602  -0.75068  -0.71061
 Alpha  occ. eigenvalues --   -0.66879  -0.62341  -0.61496  -0.59837  -0.57403
 Alpha  occ. eigenvalues --   -0.53602  -0.51283  -0.43540  -0.39275  -0.33288
 Alpha virt. eigenvalues --    0.09841   0.10463   0.11813   0.12017   0.13343
 Alpha virt. eigenvalues --    0.14061   0.15338   0.24907   0.26261   0.26534
 Alpha virt. eigenvalues --    0.28142   0.28817   0.28956   0.30089   0.31671

 Mulliken charges:
               1
     1  O   -0.459494
     2  N   -0.495715
     3  C    0.612932
     4  C   -0.111699
     5  C    0.259241
     6  C    0.122198
     7  C   -0.157103
     8  H    0.220241
     9  H    0.002356
    10  H    0.009669
    11  H    0.009292
    12  H   -0.011919
 Sum of Mulliken charges =  -0.00000

 Dipole moment (field-independent basis, Debye):
    X=              0.5277    Y=             -1.3800    Z=             -0.0000  Tot=              1.4774
 Quadrupole moment (field-independent basis, Debye-Ang):
   XX=            -38.0786   YY=            -37.2333   ZZ=            -43.4117
   XY=             -1.9994   XZ=              0.0000   YZ=              0.0000

 SCF Done:  E(RHF) =  -321.684529065     A.U. after    6 cycles
 E2 =    -0.1197097831D+01 EUMP2 =    -0.32288162689602D+03
