 Gaussian 09, Revision E.01,
 Gaussian 09:  EM64L-G09RevE.01 30-Nov-2015

 ---------------------
 #p opt freq B3LYP/gen
 ---------------------

 ----------------------
 4HY_B3LYP_PC2_OPT_FREQ
 ----------------------
 Symbolic Z-matrix:
 Charge =  0 Multiplicity = 1

 SCF Done:  E(RB3LYP) =  -323.647247298     A.U. after   14 cycles
 SCF Done:  E(RB3LYP) =  -323.647548442     A.U. after    9 cycles
 SCF Done:  E(RB3LYP) =  -323.647552131     A.U. after    7 cycles
 Optimization completed.
    -- Stationary point found.
 Normal termination of Gaussian 09 at Fri Aug 27 21:19:41 2021.

 ------------------------------------------------------------------
 #P Geom=AllCheck Guess=TCheck SCRF=Check GenChk RB3LYP/ChkBas Freq
 ------------------------------------------------------------------

 Structure from the checkpoint file:  "4HY_B3LYP_PC2_OPT_FREQ.chk"
 ----------------------
 4HY_B3LYP_PC2_OPT_FREQ
 ----------------------
 Charge =  0 Multiplicity = 1

                         Standard orientation:
 ---------------------------------------------------------------------
 Center     Atomic      Atomic             Coordinates (Angstroms)
 Number     Number       Type             X           Y           Z
 ---------------------------------------------------------------------
      1          6           0       -1.147702    1.151156    0.000044
      2          6           0        0.240294    1.183598   -0.000065
      3          6           0        0.928160   -0.026077   -0.000015
      4          6           0        0.194410   -1.208147    0.000053
      5          6           0       -1.188208   -1.119155   -0.000034
      6          7           0       -1.868011    0.030641    0.000048
      7          1           0       -1.705074    2.080998   -0.000034
      8          1           0        0.767932    2.129296   -0.000132
      9          1           0        0.699559   -2.162993    0.000151
     10          1           0       -1.783171   -2.025120    0.000164
     11          8           0        2.283162   -0.111759   -0.000024
     12          1           0        2.669803    0.769149   -0.000195
 ---------------------------------------------------------------------

 SCF Done:  E(RB3LYP) =  -323.647552131     A.U. after    1 cycles

 The electronic state is 1-A.
 Alpha  occ. eigenvalues --  -19.17796 -14.30858 -10.26216 -10.21583 -10.21366
 Alpha  occ. eigenvalues --  -10.19035 -10.18452  -1.08955  -0.94801  -0.80719
 Alpha  occ. eigenvalues --   -0.77363  -0.65897  -0.63798  -0.57381  -0.51641
 Alpha  occ. eigenvalues --   -0.49001  -0.46138  -0.44063  -0.44052  -0.41695
 Alpha  occ. eigenvalues --   -0.38321  -0.36662  -0.27672  -0.26637  -0.26532
 Alpha virt. eigenvalues --   -0.02865  -0.02406  -0.00446   0.02969   0.04009
 Alpha virt. eigenvalues --    0.07528   0.07737   0.12126   0.12153   0.13392
 Alpha virt. eigenvalues --    0.15595   0.17198   0.18186   0.18978   0.19883

 Mulliken charges:
               1
     1  C    0.144407
     2  C   -0.170428
     3  C    0.353940
     4  C   -0.123427
     5  C    0.143877
     6  N   -0.363140
     7  H    0.055899
     8  H    0.025374
     9  H    0.047624
    10  H    0.058921
    11  O   -0.372945
    12  H    0.199898
 Sum of Mulliken charges =   0.00000

 Dipole moment (field-independent basis, Debye):
    X=              2.3798    Y=              1.2913    Z=             -0.0002  Tot=              2.7076
 Quadrupole moment (field-independent basis, Debye-Ang):
   XX=            -44.2089   YY=            -33.7917   ZZ=            -43.2121
   XY=              4.5131   XZ=             -0.0008   YZ=             -0.0011

  Exact polarizability:  81.587   1.371  76.935  -0.001  -0.001  38.539
 Approx polarizability: 135.200   1.346 124.403  -0.001  -0.001  58.687

                      1                      2                      3
                      A                      A                      A
 Frequencies --    227.3196               390.1630               402.4751
 Red. masses --      6.0548                 1.3920                 1.7788
 Frc consts  --      0.1843                 0.1248                 0.1698
 IR Inten    --      0.5741                70.5733                37.7126

                      4                      5                      6
                      A                      A                      A
 Frequencies --    409.2826               530.7918               542.8791
 Red. masses --      4.0071                 8.5994                 2.7159
 Frc consts  --      0.3955                 1.4275                 0.4716
 IR Inten    --     10.4469                 0.1401                20.9046

                      7                      8                      9
                      A                      A                      A
 Frequencies --    681.9435               750.3125               829.5718
 Red. masses --      7.0229                 3.0737                 1.5674
 Frc consts  --      1.9243                 1.0195                 0.6355
 IR Inten    --      0.0549                 0.1087                39.5833

                     10                     11                     12
                      A                      A                      A
 Frequencies --    848.5496               855.7359               972.9282
 Red. masses --      5.7075                 1.3414                 1.3414
 Frc consts  --      2.4213                 0.5787                 0.7481
 IR Inten    --     46.5615                12.6492                 0.1078

                     13                     14                     15
                      A                      A                      A
 Frequencies --   1004.8523              1010.3790              1078.4445
 Red. masses --      1.4406                 7.4940                 1.7465
 Frc consts  --      0.8570                 4.5075                 1.1968
 IR Inten    --      0.0470                16.0264                 0.0839

                     16                     17                     18
                      A                      A                      A
 Frequencies --   1104.9408              1185.5009              1240.8568
 Red. masses --      1.5224                 1.4617                 1.3625
 Frc consts  --      1.0951                 1.2104                 1.2361
 IR Inten    --      5.5111               120.6486                22.7680

                     19                     20                     21
                      A                      A                      A
 Frequencies --   1302.1938              1310.1383              1386.2788
 Red. masses --      5.1389                 3.2601                 1.2360
 Frc consts  --      5.1342                 3.2970                 1.3995
 IR Inten    --     87.6227                 3.8124                19.3446

                     22                     23                     24
                      A                      A                      A
 Frequencies --   1461.0821              1531.1120              1623.9960
 Red. masses --      2.4000                 2.2645                 5.8114
 Frc consts  --      3.0187                 3.1278                 9.0302
 IR Inten    --     22.3177                36.0451               147.6442

                     25                     26                     27
                      A                      A                      A
 Frequencies --   1638.5265              3151.6584              3157.3137
 Red. masses --      5.5893                 1.0873                 1.0899
 Frc consts  --      8.8413                 6.3635                 6.4016
 IR Inten    --     87.0723                17.2075                17.7547

                     28                     29                     30
                      A                      A                      A
 Frequencies --   3173.8468              3206.4796              3817.8277
 Red. masses --      1.0944                 1.0934                 1.0659
 Frc consts  --      6.4953                 6.6234                 9.1541
 IR Inten    --     12.7330                 3.2345                64.8486

 - Thermochemistry -
 -------------------
 Temperature   298.150 Kelvin.  Pressure   1.00000 Atm.
 Atom     1 has atomic number  6 and mass  12.00000

 Molecular mass:    95.03711 amu.
 Principal axes and moments of inertia in atomic units:
                           1         2         3
     Eigenvalues --   299.27319 681.79593 981.06912
           X            0.99978   0.02078   0.00002
           Y           -0.02078   0.99978   0.00002
           Z           -0.00002  -0.00002   1.00000
 This molecule is an asymmetric top.
 Rotational symmetry number  1.
 Rotational temperatures (Kelvin)      0.28941     0.12704     0.08829
 Rotational constants (GHZ):           6.03041     2.64704     1.83957
 Zero-point vibrational energy     244202.0 (Joules/Mol)
                                   58.36567 (Kcal/Mol)
 Warning -- explicit consideration of   6 degrees of freedom as
           vibrations may cause significant error
 Vibrational temperatures:    327.06   561.36   579.07   588.87   763.69
          (Kelvin)            781.08   981.16  1079.53  1193.57  1220.87
                             1231.21  1399.82  1445.76  1453.71  1551.64
                             1589.76  1705.67  1785.31  1873.56  1884.99
                             1994.54  2102.17  2202.93  2336.57  2357.47
                             4534.53  4542.66  4566.45  4613.40  5493.00

 Zero-point correction=                           0.093012 (Hartree/Particle)
 Thermal correction to Energy=                    0.098342
 Thermal correction to Enthalpy=                  0.099286
 Thermal correction to Gibbs Free Energy=         0.064129
 Sum of electronic and zero-point Energies=           -323.554541
 Sum of electronic and thermal Energies=              -323.549211
 Sum of electronic and thermal Enthalpies=            -323.548266
 Sum of electronic and thermal Free Energies=         -323.583424

                     E (Thermal)             CV                S
                      KCal/Mol        Cal/Mol-Kelvin    Cal/Mol-Kelvin
 Total                   61.710             20.608             73.994
 Electronic               0.000              0.000              0.000
 Translational            0.889              2.981             39.566
 Rotational               0.889              2.981             26.795
 Vibrational             59.933             14.646              7.633
 Vibration     1          0.651              1.799              1.900
 Vibration     2          0.758              1.491              1.000
 Vibration     3          0.768              1.465              0.954
 Vibration     4          0.774              1.450              0.929
 Vibration     5          0.886              1.182              0.585
 Vibration     6          0.898              1.155              0.559

 Optimization completed.
    -- Stationary point found.
 Normal termination of Gaussian 09 at Fri Aug 27 21:20:22 2021.
