 Gaussian 09, Revision E.01,
 Gaussian 09:  EM64L-G09RevE.01 30-Nov-2015

 ---------------------
 #p opt freq B3LYP/gen
 ---------------------

 ----------------------
 4PY_B3LYP_PC2_OPT_FREQ
 ----------------------
 Symbolic Z-matrix:
 Charge =  0 Multiplicity = 1

 SCF Done:  E(RB3LYP) =  -323.644634245     A.U. after   17 cycles
 SCF Done:  E(RB3LYP) =  -323.644915861     A.U. after   11 cycles
 SCF Done:  E(RB3LYP) =  -323.644917857     A.U. after    7 cycles
 SCF Done:  E(RB3LYP) =  -323.644917728     A.U. after    7 cycles
 Optimization completed.
    -- Stationary point found.
 Normal termination of Gaussian 09 at Fri Aug 27 21:19:10 2021.

 ------------------------------------------------------------------
 #P Geom=AllCheck Guess=TCheck SCRF=Check GenChk RB3LYP/ChkBas Freq
 ------------------------------------------------------------------

 Structure from the checkpoint file:  "4PY_B3LYP_PC2_OPT_FREQ.chk"
 ----------------------
 4PY_B3LYP_PC2_OPT_FREQ
 ----------------------
 Charge =  0 Multiplicity = 1

                         Standard orientation:
 ---------------------------------------------------------------------
 Center     Atomic      Atomic             Coordinates (Angstroms)
 Number     Number       Type             X           Y           Z
 ---------------------------------------------------------------------
      1          6           0        0.000037    1.043944    1.188687
      2          6           0        0.000037   -0.305632    1.224583
      3          6           0        0.000617   -1.105723   -0.000000
      4          6           0        0.000037   -0.305632   -1.224583
      5          6           0        0.000037    1.043944   -1.188687
      6          7           0        0.000189    1.722405    0.000000
      7          1           0       -0.000121    1.658165    2.077634
      8          1           0       -0.000219   -0.824209    2.171771
      9          1           0       -0.000219   -0.824209   -2.171771
     10          1           0       -0.000121    1.658165   -2.077634
     11          8           0       -0.000643   -2.334562   -0.000000
     12          1           0       -0.000078    2.726343    0.000000
 ---------------------------------------------------------------------

 SCF Done:  E(RB3LYP) =  -323.644917728     A.U. after    1 cycles

 The electronic state is 1-A'.
 Alpha  occ. eigenvalues --  -19.06993 -14.39469 -10.24172 -10.24171 -10.23937
 Alpha  occ. eigenvalues --  -10.18043 -10.18043  -1.01026  -0.99816  -0.79763
 Alpha  occ. eigenvalues --   -0.79661  -0.65805  -0.63255  -0.59960  -0.51558
 Alpha  occ. eigenvalues --   -0.48665  -0.46550  -0.45140  -0.44589  -0.39038
 Alpha  occ. eigenvalues --   -0.38731  -0.37154  -0.29623  -0.23480  -0.23362
 Alpha virt. eigenvalues --   -0.02970  -0.02928  -0.01769   0.02560   0.03988
 Alpha virt. eigenvalues --    0.06968   0.07310   0.11515   0.11807   0.14635
 Alpha virt. eigenvalues --    0.14705   0.15298   0.15930   0.18094   0.18549

 Mulliken charges:
               1
     1  C    0.155979
     2  C   -0.146070
     3  C    0.361395
     4  C   -0.146070
     5  C    0.155979
     6  N   -0.267713
     7  H    0.057059
     8  H    0.050752
     9  H    0.050752
    10  H    0.057059
    11  O   -0.476613
    12  H    0.147490
 Sum of Mulliken charges =   0.00000

 Dipole moment (field-independent basis, Debye):
    X=              0.0011    Y=              7.0108    Z=              0.0000  Tot=              7.0108
 Quadrupole moment (field-independent basis, Debye-Ang):
   XX=            -43.2980   YY=            -42.9570   ZZ=            -34.8821
   XY=             -0.0054   XZ=              0.0000   YZ=              0.0000

  Exact polarizability:  38.444   0.005  91.689   0.000  -0.000  70.168
 Approx polarizability:  58.374   0.020 171.639  -0.000  -0.000 100.491

                      1                      2                      3
                     A'                     A"                     A'
 Frequencies --    157.8469               422.5439               430.6879
 Red. masses --      5.3211                 3.2359                 2.2994
 Frc consts  --      0.0781                 0.3404                 0.2513
 IR Inten    --      0.8226                 0.0000                55.7709

                      4                      5                      6
                     A"                     A'                     A'
 Frequencies --    459.2566               523.4248               533.8517
 Red. masses --      5.8567                 8.3607                 1.2512
 Frc consts  --      0.7278                 1.3496                 0.2101
 IR Inten    --      5.0112                 8.3318                32.6278

                      7                      8                      9
                     A"                     A'                     A"
 Frequencies --    627.5432               724.4496               803.9643
 Red. masses --      6.6701                 2.3484                 1.2579
 Frc consts  --      1.5476                 0.7262                 0.4790
 IR Inten    --      1.8048                21.3388                 0.0000

                     10                     11                     12
                     A'                     A'                     A'
 Frequencies --    811.7845               859.9379               962.1215
 Red. masses --      4.9252                 2.3599                 1.2208
 Frc consts  --      1.9123                 1.0282                 0.6658
 IR Inten    --      5.0597                70.7311                 0.0020

                     13                     14                     15
                     A"                     A'                     A'
 Frequencies --    963.0875              1001.1576              1023.8579
 Red. masses --      1.2887                 4.0913                 2.7040
 Frc consts  --      0.7043                 2.4161                 1.6701
 IR Inten    --      0.0000                58.0594                 0.5333

                     16                     17                     18
                     A"                     A'                     A"
 Frequencies --   1076.4466              1205.1588              1251.0225
 Red. masses --      1.8308                 1.2022                 1.8249
 Frc consts  --      1.2499                 1.0288                 1.6828
 IR Inten    --      2.2303                18.0343                 0.7382

                     19                     20                     21
                     A"                     A"                     A'
 Frequencies --   1262.4073              1416.6754              1439.1778
 Red. masses --      1.2979                 1.7396                 1.7821
 Frc consts  --      1.2187                 2.0570                 2.1748
 IR Inten    --     11.3860                 0.1230                 0.0461

                     22                     23                     24
                     A"                     A"                     A'
 Frequencies --   1527.6753              1623.3844              1661.9203
 Red. masses --      3.9990                 2.7801                 6.2602
 Frc consts  --      5.4987                 4.3167                10.1873
 IR Inten    --     96.6730                 5.6164                27.8847

                     25                     26                     27
                     A'                     A"                     A'
 Frequencies --   1700.6281              3196.0028              3196.4423
 Red. masses --      7.1721                 1.0886                 1.0893
 Frc consts  --     12.2213                 6.5515                 6.5576
 IR Inten    --    540.2952                 2.9290                 4.5195

                     28                     29                     30
                     A"                     A'                     A'
 Frequencies --   3215.6765              3216.9398              3656.6226
 Red. masses --      1.0960                 1.0969                 1.0789
 Frc consts  --      6.6774                 6.6879                 8.4991
 IR Inten    --      5.6808                 0.3652               100.6366

 - Thermochemistry -
 -------------------
 Temperature   298.150 Kelvin.  Pressure   1.00000 Atm.
 Atom     1 has atomic number  6 and mass  12.00000

 Molecular mass:    95.03711 amu.
 Principal axes and moments of inertia in atomic units:
                           1         2         3
     Eigenvalues --   314.64515 664.18539 978.83047
           X            0.00011   0.00000   1.00000
           Y            1.00000   0.00000  -0.00011
           Z            0.00000   1.00000   0.00000
 This molecule is an asymmetric top.
 Rotational symmetry number  1.
 Rotational temperatures (Kelvin)      0.27527     0.13041     0.08849
 Rotational constants (GHZ):           5.73580     2.71723     1.84377
 Zero-point vibrational energy     244945.5 (Joules/Mol)
                                   58.54339 (Kcal/Mol)
 Warning -- explicit consideration of   6 degrees of freedom as
           vibrations may cause significant error
 Vibrational temperatures:    227.11   607.95   619.66   660.77   753.09
          (Kelvin)            768.09   902.89  1042.32  1156.72  1167.98
                             1237.26  1384.28  1385.67  1440.44  1473.10
                             1548.76  1733.95  1799.94  1816.32  2038.28
                             2070.65  2197.98  2335.69  2391.13  2446.82
                             4598.33  4598.96  4626.64  4628.45  5261.06

 Zero-point correction=                           0.093295 (Hartree/Particle)
 Thermal correction to Energy=                    0.098704
 Thermal correction to Enthalpy=                  0.099649
 Thermal correction to Gibbs Free Energy=         0.064239
 Sum of electronic and zero-point Energies=           -323.551623
 Sum of electronic and thermal Energies=              -323.546213
 Sum of electronic and thermal Enthalpies=            -323.545269
 Sum of electronic and thermal Free Energies=         -323.580679

                     E (Thermal)             CV                S
                      KCal/Mol        Cal/Mol-Kelvin    Cal/Mol-Kelvin
 Total                   61.938             20.783             74.527
 Electronic               0.000              0.000              0.000
 Translational            0.889              2.981             39.566
 Rotational               0.889              2.981             26.817
 Vibrational             60.160             14.821              8.143
 Vibration     1          0.621              1.894              2.575
 Vibration     2          0.785              1.421              0.883
 Vibration     3          0.792              1.403              0.856
 Vibration     4          0.817              1.340              0.768
 Vibration     5          0.878              1.198              0.602
 Vibration     6          0.889              1.175              0.579

 Optimization completed.
    -- Stationary point found.
 Normal termination of Gaussian 09 at Fri Aug 27 21:19:45 2021.
