 Gaussian 09, Revision E.01,
 Gaussian 09:  EM64L-G09RevE.01 30-Nov-2015

 ----------------------------------------------------------------------
 #p opt=(calcfc,qst3,maxcycle=300,cartesian) freq b3lyp/gen int=acc2e=1
 2 scf=(novaracc,noincfock)
 ----------------------------------------------------------------------

 -------------------------
 HY_H2O_B3LYP_PC2_OPT_FREQ
 -------------------------
 Symbolic Z-matrix:
 Charge =  0 Multiplicity = 1

 -------------------------
 PY_H2O_B3LYP_PC2_OPT_FREQ
 -------------------------
 Symbolic Z-matrix:
 Charge =  0 Multiplicity = 1

 -------------
 TST_H2O_B3LYP
 -------------
 Symbolic Z-matrix:
 Charge =  0 Multiplicity = 1

 SCF Done:  E(RB3LYP) =  -400.108086823     A.U. after   13 cycles
 SCF Done:  E(RB3LYP) =  -400.106685128     A.U. after   11 cycles
 SCF Done:  E(RB3LYP) =  -400.109852497     A.U. after   11 cycles
 SCF Done:  E(RB3LYP) =  -400.111090251     A.U. after   11 cycles
 SCF Done:  E(RB3LYP) =  -400.110891661     A.U. after   11 cycles
 SCF Done:  E(RB3LYP) =  -400.116151865     A.U. after   11 cycles
 SCF Done:  E(RB3LYP) =  -400.116965202     A.U. after   11 cycles
 SCF Done:  E(RB3LYP) =  -400.121141301     A.U. after   11 cycles
 SCF Done:  E(RB3LYP) =  -400.121589733     A.U. after   11 cycles
 SCF Done:  E(RB3LYP) =  -400.122080565     A.U. after   10 cycles
 SCF Done:  E(RB3LYP) =  -400.121928585     A.U. after   10 cycles
 SCF Done:  E(RB3LYP) =  -400.122234288     A.U. after   10 cycles
 SCF Done:  E(RB3LYP) =  -400.122252658     A.U. after    8 cycles
 SCF Done:  E(RB3LYP) =  -400.122258655     A.U. after    8 cycles
 SCF Done:  E(RB3LYP) =  -400.122260158     A.U. after    7 cycles
 SCF Done:  E(RB3LYP) =  -400.122260359     A.U. after    7 cycles
 Optimization completed.
    -- Stationary point found.
 Normal termination of Gaussian 09 at Sat Aug 28 15:15:53 2021.

 ------------------------------------------------------------------
 #P Geom=AllCheck Guess=TCheck SCRF=Check GenChk RB3LYP/ChkBas Freq
 ------------------------------------------------------------------

 Structure from the checkpoint file:  "TST_H2O_B3LYP.chk"
 -------------------------
 HY_H2O_B3LYP_PC2_OPT_FREQ
 -------------------------
 Charge =  0 Multiplicity = 1

                         Standard orientation:
 ---------------------------------------------------------------------
 Center     Atomic      Atomic             Coordinates (Angstroms)
 Number     Number       Type             X           Y           Z
 ---------------------------------------------------------------------
      1          8           0        1.378714    1.325510   -0.008906
      2          7           0        0.313906   -0.683064   -0.008348
      3          6           0        0.261171    0.676924   -0.002230
      4          6           0       -1.003393    1.307888    0.009738
      5          6           0       -0.799110   -1.432802   -0.006705
      6          6           0       -2.137417    0.534075    0.011960
      7          6           0       -2.049788   -0.868031    0.003445
      8          1           0        2.226150    0.504778   -0.021435
      9          1           0       -1.039272    2.386628    0.014297
     10          1           0       -0.649604   -2.503937   -0.016293
     11          1           0       -3.109146    1.010157    0.019314
     12          1           0       -2.931869   -1.489239    0.003048
     13          8           0        2.733547   -0.648139   -0.081234
     14          1           0        3.265686   -0.865822    0.687963
     15          1           0        1.513842   -0.988416   -0.004578
 ---------------------------------------------------------------------

 SCF Done:  E(RB3LYP) =  -400.122260359     A.U. after    1 cycles

 The electronic state is 1-A.
 Alpha  occ. eigenvalues --  -19.12033 -19.09907 -14.35377 -10.28632 -10.23926
 Alpha  occ. eigenvalues --  -10.21134 -10.19307 -10.19291  -1.06670  -0.97123
 Alpha  occ. eigenvalues --   -0.96135  -0.82854  -0.77303  -0.66905  -0.64275
 Alpha  occ. eigenvalues --   -0.56485  -0.55252  -0.50926  -0.48771  -0.47024
 Alpha  occ. eigenvalues --   -0.45610  -0.44067  -0.40657  -0.40090  -0.36506
 Alpha  occ. eigenvalues --   -0.35702  -0.31779  -0.30351  -0.28233  -0.24635
 Alpha virt. eigenvalues --   -0.05700  -0.01822   0.01017   0.02605   0.03675
 Alpha virt. eigenvalues --    0.05558   0.07207   0.10413   0.11265   0.12146
 Alpha virt. eigenvalues --    0.13885   0.14597   0.15798   0.17473   0.18181

 Mulliken charges:
               1
     1  O   -0.500801
     2  N   -0.371014
     3  C    0.486270
     4  C   -0.112347
     5  C    0.156041
     6  C    0.044774
     7  C   -0.123926
     8  H    0.296213
     9  H    0.055072
    10  H    0.058281
    11  H    0.056452
    12  H    0.046166
    13  O   -0.576535
    14  H    0.201598
    15  H    0.283758
 Sum of Mulliken charges =  -0.00000

 Dipole moment (field-independent basis, Debye):
    X=             -3.0875    Y=             -1.5860    Z=              1.3597  Tot=              3.7279
 Quadrupole moment (field-independent basis, Debye-Ang):
   XX=            -45.6629   YY=            -45.3270   ZZ=            -49.4367
   XY=             -2.3659   XZ=              4.9131   YZ=             -1.3264

  Exact polarizability: 105.024   2.136  84.496   1.108  -0.288  44.159
 Approx polarizability: 157.186   9.797 141.291   1.160  -0.406  67.318

 ******    1 imaginary frequencies (negative Signs) ******

                      1                      2                      3
                      A                      A                      A
 Frequencies --  -1524.8722               111.3613               211.8838
 Red. masses --      1.0567                 5.1394                 5.1513
 Frc consts  --      1.4477                 0.0376                 0.1363
 IR Inten    --    266.3489                 2.6903                 1.6807

                      4                      5                      6
                      A                      A                      A
 Frequencies --    331.7646               413.4837               450.4269
 Red. masses --      5.3498                 3.0836                 2.7214
 Frc consts  --      0.3469                 0.3106                 0.3253
 IR Inten    --     13.6380                 6.0977                30.6094

                      7                      8                      9
                      A                      A                      A
 Frequencies --    494.4520               540.9812               580.3835
 Red. masses --      1.6341                 2.4640                 5.1440
 Frc consts  --      0.2354                 0.4249                 1.0209
 IR Inten    --      7.0364                14.3604                25.3336

                     10                     11                     12
                      A                      A                      A
 Frequencies --    614.5557               666.8772               697.9537
 Red. masses --      1.3526                 4.5057                 6.5337
 Frc consts  --      0.3010                 1.1806                 1.8753
 IR Inten    --     55.1639                12.3159               278.8371

                     13                     14                     15
                      A                      A                      A
 Frequencies --    756.9511               794.4332               866.1887
 Red. masses --      1.8575                 1.9751                 5.4714
 Frc consts  --      0.6271                 0.7344                 2.4186
 IR Inten    --     22.8461                44.8709                41.2772

                     16                     17                     18
                      A                      A                      A
 Frequencies --    879.0178               974.3162               997.6887
 Red. masses --      1.5217                 1.3694                 3.2275
 Frc consts  --      0.6927                 0.7659                 1.8928
 IR Inten    --      5.9088                 1.9619               965.7673

                     19                     20                     21
                      A                      A                      A
 Frequencies --   1011.9787              1051.1028              1139.6782
 Red. masses --      1.3073                 2.3293                 1.5099
 Frc consts  --      0.7888                 1.5162                 1.1555
 IR Inten    --      0.4612                 5.4986               324.3292

                     22                     23                     24
                      A                      A                      A
 Frequencies --   1180.0971              1227.5703              1283.0525
 Red. masses --      1.0947                 1.2624                 3.7378
 Frc consts  --      0.8982                 1.1209                 3.6254
 IR Inten    --     53.3258              3887.8694               148.3402

                     25                     26                     27
                      A                      A                      A
 Frequencies --   1328.7772              1359.9472              1400.8041
 Red. masses --      1.6303                 1.1018                 2.2428
 Frc consts  --      1.6960                 1.2006                 2.5930
 IR Inten    --    545.8729                40.6107                14.0508

                     28                     29                     30
                      A                      A                      A
 Frequencies --   1426.2530              1495.7934              1546.6704
 Red. masses --      1.0879                 2.3989                 3.3004
 Frc consts  --      1.3038                 3.1623                 4.6516
 IR Inten    --    109.8590                62.7404               190.6888

                     31                     32                     33
                      A                      A                      A
 Frequencies --   1576.0644              1675.7768              1694.6614
 Red. masses --      3.9824                 4.6150                 1.2731
 Frc consts  --      5.8284                 7.6357                 2.1541
 IR Inten    --     60.9989               303.7646               117.2291

                     34                     35                     36
                      A                      A                      A
 Frequencies --   1936.1701              3179.5163              3188.5299
 Red. masses --      1.0635                 1.0888                 1.0907
 Frc consts  --      2.3490                 6.4851                 6.5336
 IR Inten    --     45.3188                 6.2864                 5.7764

                     37                     38                     39
                      A                      A                      A
 Frequencies --   3216.3038              3219.7782              3856.4361
 Red. masses --      1.0928                 1.0966                 1.0661
 Frc consts  --      6.6603                 6.6984                 9.3412
 IR Inten    --      4.1000                 2.4219                34.5771

 - Thermochemistry -
 -------------------
 Temperature   298.150 Kelvin.  Pressure   1.00000 Atm.
 Atom     1 has atomic number  8 and mass  15.99491

 Molecular mass:   113.04768 amu.
 Principal axes and moments of inertia in atomic units:
                           1         2         3
     Eigenvalues --   436.737981127.379621560.05148
           X            0.99987  -0.01440   0.00671
           Y            0.01443   0.99989  -0.00444
           Z           -0.00664   0.00454   0.99997
 This molecule is an asymmetric top.
 Rotational symmetry number  1.
 Warning -- assumption of classical behavior for rotation
           may cause significant error
 Rotational temperatures (Kelvin)      0.19832     0.07683     0.05552
 Rotational constants (GHZ):           4.13232     1.60083     1.15685
    1 imaginary frequencies ignored.
 Zero-point vibrational energy     295344.1 (Joules/Mol)
                                   70.58894 (Kcal/Mol)
 Warning -- explicit consideration of   9 degrees of freedom as
           vibrations may cause significant error
 Vibrational temperatures:    160.22   304.85   477.33   594.91   648.06
          (Kelvin)            711.41   778.35   835.04   884.21   959.49
                             1004.20  1089.08  1143.01  1246.25  1264.71
                             1401.82  1435.45  1456.01  1512.30  1639.74
                             1697.89  1766.20  1846.02  1911.81  1956.66
                             2015.44  2052.06  2152.11  2225.31  2267.60
                             2411.07  2438.24  2785.71  4574.61  4587.58
                             4627.54  4632.54  5548.54

 Zero-point correction=                           0.112491 (Hartree/Particle)
 Thermal correction to Energy=                    0.119060
 Thermal correction to Enthalpy=                  0.120004
 Thermal correction to Gibbs Free Energy=         0.081676
 Sum of electronic and zero-point Energies=           -400.009770
 Sum of electronic and thermal Energies=              -400.003201
 Sum of electronic and thermal Enthalpies=            -400.002257
 Sum of electronic and thermal Free Energies=         -400.040584

                     E (Thermal)             CV                S
                      KCal/Mol        Cal/Mol-Kelvin    Cal/Mol-Kelvin
 Total                   74.711             25.855             80.668
 Electronic               0.000              0.000              0.000
 Translational            0.889              2.981             40.084
 Rotational               0.889              2.981             28.131
 Vibrational             72.934             19.893             12.453
 Vibration     1          0.607              1.940              3.245
 Vibration     2          0.643              1.823              2.027
 Vibration     3          0.714              1.612              1.251
 Vibration     4          0.777              1.441              0.914
 Vibration     5          0.809              1.360              0.794
 Vibration     6          0.850              1.262              0.672
 Vibration     7          0.896              1.159              0.563
 Vibration     8          0.937              1.074              0.485
 Vibration     9          0.974              1.001              0.425

 Optimization completed.
    -- Stationary point found.
 Normal termination of Gaussian 09 at Sat Aug 28 15:17:10 2021.
