 Gaussian 09, Revision E.01,
 Gaussian 09:  EM64L-G09RevE.01 30-Nov-2015

 ------------------------------------------------
 #p opt=(calcfc,qst3,MaxCycle=200) freq B3LYP/gen
 ------------------------------------------------

 ---------------------
 HY_B3LYP_PC2_OPT_FREQ
 ---------------------
 Symbolic Z-matrix:
 Charge =  0 Multiplicity = 1

 ---------------------
 PY_B3LYP_PC2_OPT_FREQ
 ---------------------
 Symbolic Z-matrix:
 Charge =  0 Multiplicity = 1

 -------------
 TST_GAS_B3LYP
 -------------
 Symbolic Z-matrix:
 Charge =  0 Multiplicity = 1

 SCF Done:  E(RB3LYP) =  -323.583712544     A.U. after   15 cycles
 SCF Done:  E(RB3LYP) =  -323.591342618     A.U. after   13 cycles
 SCF Done:  E(RB3LYP) =  -323.602670000     A.U. after   13 cycles
 SCF Done:  E(RB3LYP) =  -323.601664387     A.U. after   12 cycles
 SCF Done:  E(RB3LYP) =  -323.608788565     A.U. after   13 cycles
 SCF Done:  E(RB3LYP) =  -323.602333699     A.U. after   12 cycles
 SCF Done:  E(RB3LYP) =  -323.599612793     A.U. after   13 cycles
 SCF Done:  E(RB3LYP) =  -323.600521552     A.U. after   11 cycles
 SCF Done:  E(RB3LYP) =  -323.599897467     A.U. after   12 cycles
 SCF Done:  E(RB3LYP) =  -323.600706778     A.U. after   11 cycles
 SCF Done:  E(RB3LYP) =  -323.600735410     A.U. after   11 cycles
 SCF Done:  E(RB3LYP) =  -323.600737836     A.U. after   10 cycles
 SCF Done:  E(RB3LYP) =  -323.600742603     A.U. after    9 cycles
 SCF Done:  E(RB3LYP) =  -323.600746144     A.U. after    8 cycles
 Optimization completed.
    -- Stationary point found.
 Normal termination of Gaussian 09 at Sat Aug 28 00:55:24 2021.

 ------------------------------------------------------------------
 #P Geom=AllCheck Guess=TCheck SCRF=Check GenChk RB3LYP/ChkBas Freq
 ------------------------------------------------------------------

 Structure from the checkpoint file:  "TST_GAS_B3LYP.chk"
 ---------------------
 HY_B3LYP_PC2_OPT_FREQ
 ---------------------
 Charge =  0 Multiplicity = 1

                         Standard orientation:
 ---------------------------------------------------------------------
 Center     Atomic      Atomic             Coordinates (Angstroms)
 Number     Number       Type             X           Y           Z
 ---------------------------------------------------------------------
      1          8           0       -2.230413    0.036222    0.000300
      2          7           0       -0.422265   -1.045751   -0.000380
      3          6           0       -0.954111    0.204360   -0.000209
      4          6           0       -0.112339    1.329556   -0.000146
      5          6           0        0.890769   -1.283105    0.000050
      6          6           0        1.246943    1.085874    0.000022
      7          6           0        1.769962   -0.218113    0.000126
      8          1           0       -1.704507   -1.226509    0.000123
      9          1           0       -0.523462    2.326818    0.000102
     10          1           0        1.213749   -2.314584    0.000684
     11          1           0        1.931250    1.924404    0.000246
     12          1           0        2.834784   -0.391080    0.000042
 ---------------------------------------------------------------------

 SCF Done:  E(RB3LYP) =  -323.600746144     A.U. after    1 cycles

 The electronic state is 1-A.
 Alpha  occ. eigenvalues --  -19.11151 -14.35368 -10.27762 -10.24153 -10.21257
 Alpha  occ. eigenvalues --  -10.19433 -10.19201  -1.06776  -0.94716  -0.82598
 Alpha  occ. eigenvalues --   -0.76908  -0.67473  -0.63310  -0.55581  -0.51934
 Alpha  occ. eigenvalues --   -0.48737  -0.45775  -0.45412  -0.43485  -0.40376
 Alpha  occ. eigenvalues --   -0.35719  -0.35494  -0.31566  -0.30336  -0.23791
 Alpha virt. eigenvalues --   -0.05818  -0.01341   0.01033   0.03060   0.04258
 Alpha virt. eigenvalues --    0.06021   0.07189   0.11501   0.11978   0.13655
 Alpha virt. eigenvalues --    0.14686   0.15022   0.16878   0.17690   0.18781

 Mulliken charges:
               1
     1  O   -0.526372
     2  N   -0.438104
     3  C    0.522884
     4  C   -0.133988
     5  C    0.163238
     6  C    0.056990
     7  C   -0.145286
     8  H    0.285693
     9  H    0.049503
    10  H    0.061391
    11  H    0.056864
    12  H    0.047188
 Sum of Mulliken charges =  -0.00000

 Dipole moment (field-independent basis, Debye):
    X=              3.5101    Y=             -0.3820    Z=              0.0004  Tot=              3.5309
 Quadrupole moment (field-independent basis, Debye-Ang):
   XX=            -45.0700   YY=            -34.7352   ZZ=            -43.2089
   XY=              0.9644   XZ=              0.0017   YZ=             -0.0015

  Exact polarizability:  89.289  -1.420  75.053   0.002  -0.001  37.861
 Approx polarizability: 154.671  -5.286 126.473   0.002   0.002  57.634

 ******    1 imaginary frequencies (negative Signs) ******

                      1                      2                      3
                      A                      A                      A
 Frequencies --  -1879.9781               189.0556               415.2631
 Red. masses --      1.0704                 6.7682                 3.3600
 Frc consts  --      2.2290                 0.1425                 0.3414
 IR Inten    --    573.3976                 0.0245                 2.1739

                      4                      5                      6
                      A                      A                      A
 Frequencies --    491.8942               498.4787               610.4815
 Red. masses --      2.4601                 7.1077                 7.1716
 Frc consts  --      0.3507                 1.0406                 1.5748
 IR Inten    --     17.5385                 3.8343                 2.8598

                      7                      8                      9
                      A                      A                      A
 Frequencies --    673.4504               740.1642               772.0132
 Red. masses --      7.0416                 2.8202                 1.4392
 Frc consts  --      1.8816                 0.9103                 0.5054
 IR Inten    --      0.1435                 6.4367                56.7137

                     10                     11                     12
                      A                      A                      A
 Frequencies --    860.2054               896.1027               969.9397
 Red. masses --      1.3655                 5.7806                 1.3635
 Frc consts  --      0.5953                 2.7349                 0.7558
 IR Inten    --      2.3854                 6.8063                 1.3616

                     13                     14                     15
                      A                      A                      A
 Frequencies --   1005.8168              1019.5300              1039.3136
 Red. masses --      1.3031                 5.9350                 2.1219
 Frc consts  --      0.7767                 3.6347                 1.3504
 IR Inten    --      0.1433                14.9025                 4.6087

                     16                     17                     18
                      A                      A                      A
 Frequencies --   1118.7709              1140.4298              1177.8846
 Red. masses --      1.1905                 1.4715                 1.1302
 Frc consts  --      0.8779                 1.1276                 0.9239
 IR Inten    --     60.8542                 5.2424                16.4974

                     19                     20                     21
                      A                      A                      A
 Frequencies --   1268.8091              1327.9027              1407.3499
 Red. masses --      3.2059                 1.9829                 2.4881
 Frc consts  --      3.0408                 2.0601                 2.9035
 IR Inten    --      3.2636                33.4459                22.5454

                     22                     23                     24
                      A                      A                      A
 Frequencies --   1486.6231              1530.5318              1587.6946
 Red. masses --      2.3249                 4.1158                 5.0690
 Frc consts  --      3.0273                 5.6805                 7.5284
 IR Inten    --      3.4259               317.5734                34.3780

                     25                     26                     27
                      A                      A                      A
 Frequencies --   1655.4038              2105.5099              3178.5799
 Red. masses --      6.0076                 1.0762                 1.0891
 Frc consts  --      9.6997                 2.8110                 6.4832
 IR Inten    --    405.4408                52.8612                 7.2333

                     28                     29                     30
                      A                      A                      A
 Frequencies --   3197.8141              3220.3981              3223.9687
 Red. masses --      1.0902                 1.0943                 1.0950
 Frc consts  --      6.5682                 6.6866                 6.7058
 IR Inten    --      3.2605                 5.4332                 0.2861

 - Thermochemistry -
 -------------------
 Temperature   298.150 Kelvin.  Pressure   1.00000 Atm.
 Atom     1 has atomic number  8 and mass  15.99491

 Molecular mass:    95.03711 amu.
 Principal axes and moments of inertia in atomic units:
                           1         2         3
     Eigenvalues --   313.45749 626.08968 939.54713
           X            0.99997   0.00773   0.00001
           Y           -0.00773   0.99997  -0.00001
           Z           -0.00001   0.00001   1.00000
 This molecule is an asymmetric top.
 Rotational symmetry number  1.
 Rotational temperatures (Kelvin)      0.27632     0.13834     0.09219
 Rotational constants (GHZ):           5.75753     2.88256     1.92086
    1 imaginary frequencies ignored.
 Zero-point vibrational energy     232131.6 (Joules/Mol)
                                   55.48079 (Kcal/Mol)
 Warning -- explicit consideration of   5 degrees of freedom as
           vibrations may cause significant error
 Vibrational temperatures:    272.01   597.47   707.73   717.20   878.35
          (Kelvin)            968.94  1064.93  1110.75  1237.64  1289.29
                             1395.53  1447.14  1466.87  1495.34  1609.66
                             1640.82  1694.71  1825.53  1910.55  2024.86
                             2138.92  2202.09  2284.34  2381.75  3029.36
                             4573.26  4600.94  4633.43  4638.57

 Zero-point correction=                           0.088414 (Hartree/Particle)
 Thermal correction to Energy=                    0.093407
 Thermal correction to Enthalpy=                  0.094351
 Thermal correction to Gibbs Free Energy=         0.059683
 Sum of electronic and zero-point Energies=           -323.512332
 Sum of electronic and thermal Energies=              -323.507339
 Sum of electronic and thermal Enthalpies=            -323.506395
 Sum of electronic and thermal Free Energies=         -323.541063

                     E (Thermal)             CV                S
                      KCal/Mol        Cal/Mol-Kelvin    Cal/Mol-Kelvin
 Total                   58.614             19.040             72.965
 Electronic               0.000              0.000              0.000
 Translational            0.889              2.981             39.566
 Rotational               0.889              2.981             26.714
 Vibrational             56.836             13.078              6.685
 Vibration     1          0.633              1.855              2.237
 Vibration     2          0.779              1.437              0.908
 Vibration     3          0.848              1.268              0.679
 Vibration     4          0.854              1.253              0.662
 Vibration     5          0.970              1.010              0.432

 Optimization completed.
    -- Stationary point found.
 Normal termination of Gaussian 09 at Sat Aug 28 00:56:06 2021.
