 Gaussian 09, Revision E.01,
 Gaussian 09:  EM64L-G09RevE.01 30-Nov-2015

 ---------------------
 #p G3 geom=checkpoint
 ---------------------

 ------
 H2O_G3
 ------
 Structure from the checkpoint file:  "H2O_G3.chk"
 Charge =  0 Multiplicity = 1

 SCF Done:  E(RHF) =  -76.0105999636     A.U. after   10 cycles
 SCF Done:  E(RHF) =  -76.0107460533     A.U. after    9 cycles
 SCF Done:  E(RHF) =  -76.0107464909     A.U. after    7 cycles
 Optimization completed.
    -- Stationary point found.
 Normal termination of Gaussian 09 at Fri Sep  3 00:08:59 2021.

 -------------------------------------------------------
 #P Geom=AllCheck Guess=TCheck SCRF=Check HF/GTBas1 Freq
 -------------------------------------------------------

 Structure from the checkpoint file:  "H2O_G3.chk"
 ------
 H2O_G3
 ------
 Charge =  0 Multiplicity = 1

 SCF Done:  E(RHF) =  -76.0107464909     A.U. after    1 cycles

  Exact polarizability:   2.778   0.000   6.680  -0.000  -0.000   4.807
 Approx polarizability:   2.363   0.000   5.341  -0.000  -0.000   4.004

                      1                      2                      3
                     A1                     A1                     B2
 Frequencies --   1826.3208              4069.9482              4188.3775
 Red. masses --      1.0823                 1.0455                 1.0829
 Frc consts  --      2.1269                10.2036                11.1923
 IR Inten    --    107.3136                18.2086                58.2104
 Raman Activ --      5.7216                75.5594                39.0714

 - Thermochemistry -
 -------------------
 Temperature   298.150 Kelvin.  Pressure   1.00000 Atm.
 Atom     1 has atomic number  8 and mass  15.99491

 Molecular mass:    18.01056 amu.
 Principal axes and moments of inertia in atomic units:
                           1         2         3
     Eigenvalues --     2.10065   4.09463   6.19528
           X            0.00000  -0.00000   1.00000
           Y            1.00000   0.00000  -0.00000
           Z           -0.00000   1.00000   0.00000
 This molecule is an asymmetric top.
 Rotational symmetry number  2.
 Rotational temperatures (Kelvin)     41.23193    21.15303    13.98062
 Rotational constants (GHZ):         859.13505   440.75807   291.30911
 Zero-point vibrational energy      60319.6 (Joules/Mol)
                                   14.41673 (Kcal/Mol)
 Vibrational temperatures:   2627.67  5855.74  6026.13
          (Kelvin)

 Zero-point correction=                           0.022975 (Hartree/Particle)
 Thermal correction to Energy=                    0.025808
 Thermal correction to Enthalpy=                  0.026752
 Thermal correction to Gibbs Free Energy=         0.005378
 Sum of electronic and zero-point Energies=            -75.987772
 Sum of electronic and thermal Energies=               -75.984938
 Sum of electronic and thermal Enthalpies=             -75.983994
 Sum of electronic and thermal Free Energies=          -76.005369

                     E (Thermal)             CV                S
                      KCal/Mol        Cal/Mol-Kelvin    Cal/Mol-Kelvin
 Total                   16.195              5.985             44.987
 Electronic               0.000              0.000              0.000
 Translational            0.889              2.981             34.608
 Rotational               0.889              2.981             10.376
 Vibrational             14.418              0.023              0.003

 Optimization completed.
    -- Stationary point found.
 Normal termination of Gaussian 09 at Fri Sep  3 00:09:03 2021.

 ------------------------------------------------------------------
 #P Geom=AllCheck Guess=TCheck SCRF=Check MP2(Full)/GTBas1 Opt=RCFC
 ------------------------------------------------------------------

 Structure from the checkpoint file:  "H2O_G3.chk"
 ------
 H2O_G3
 ------
 Charge =  0 Multiplicity = 1

 SCF Done:  E(RHF) =  -76.0107464909     A.U. after    1 cycles
 E2 =    -0.1876216013D+00 EUMP2 =    -0.76198368092272D+02
 SCF Done:  E(RHF) =  -76.0099628352     A.U. after    9 cycles
 E2 =    -0.1892745768D+00 EUMP2 =    -0.76199237412016D+02
 SCF Done:  E(RHF) =  -76.0098080111     A.U. after    8 cycles
 E2 =    -0.1894361493D+00 EUMP2 =    -0.76199244160444D+02
 Optimization completed.
    -- Stationary point found.
 Normal termination of Gaussian 09 at Fri Sep  3 00:09:11 2021.

 ------------------------------------------------------------------
 #P Geom=AllCheck Guess=TCheck SCRF=Check QCISD(T,E4T,FrzG3)/GTBas1
 ------------------------------------------------------------------

 Structure from the checkpoint file:  "H2O_G3.chk"
 ------
 H2O_G3
 ------
 Charge =  0 Multiplicity = 1

 SCF Done:  E(RHF) =  -76.0098080111     A.U. after    1 cycles
 E2 =    -0.1870397510D+00 EUMP2 =    -0.76196847762132D+02
 Normal termination of Gaussian 09 at Fri Sep  3 00:09:12 2021.

 ---------------------------------------------------------
 #P Geom=AllCheck Guess=TCheck SCRF=Check MP4=FrzG3/GTBas2
 ---------------------------------------------------------

 Structure from the checkpoint file:  "H2O_G3.chk"
 ------
 H2O_G3
 ------
 Charge =  0 Multiplicity = 1

 SCF Done:  E(RHF) =  -76.0167429233     A.U. after   10 cycles
 E2 =    -0.1929590177D+00 EUMP2 =    -0.76209701940974D+02
 Normal termination of Gaussian 09 at Fri Sep  3 00:09:14 2021.

 ---------------------------------------------------------
 #P Geom=AllCheck Guess=TCheck SCRF=Check MP4=FrzG3/GTBas3
 ---------------------------------------------------------

 Structure from the checkpoint file:  "H2O_G3.chk"
 ------
 H2O_G3
 ------
 Charge =  0 Multiplicity = 1

 SCF Done:  E(RHF) =  -76.0277249252     A.U. after   10 cycles
 E2 =    -0.2393708841D+00 EUMP2 =    -0.76267095809263D+02
 Normal termination of Gaussian 09 at Fri Sep  3 00:09:16 2021.

                         Standard orientation:
 ---------------------------------------------------------------------
 Center     Atomic      Atomic             Coordinates (Angstroms)
 Number     Number       Type             X           Y           Z
 ---------------------------------------------------------------------
      1          8           0       -0.000000   -0.000000    0.119286
      2          1           0        0.000000   -0.763147   -0.477145
      3          1           0        0.000000    0.763147   -0.477145
 ---------------------------------------------------------------------

 SCF Done:  E(RHF) =  -76.0559768388     A.U. after   10 cycles
 E2 =    -0.3056264339D+00 EUMP2 =    -0.76361603272641D+02

 The electronic state is 1-A1.
 Alpha  occ. eigenvalues --  -20.56821  -1.34857  -0.71169  -0.58434  -0.51019
 Alpha virt. eigenvalues --    0.04343   0.07176   0.23734   0.24583   0.24672
 Alpha virt. eigenvalues --    0.25722   0.31313   0.32563   0.66569   0.71050
 Alpha virt. eigenvalues --    0.78529   0.83840   0.91677   1.05681   1.08541

 Mulliken charges:
               1
     1  O   -0.515049
     2  H    0.257524
     3  H    0.257524
 Sum of Mulliken charges =   0.00000

 Dipole moment (field-independent basis, Debye):
    X=              0.0000    Y=             -0.0000    Z=             -2.0826  Tot=              2.0826
 Quadrupole moment (field-independent basis, Debye-Ang):
   XX=             -7.5921   YY=             -4.2259   ZZ=             -6.2354
   XY=              0.0000   XZ=             -0.0000   YZ=              0.0000

 Normal termination of Gaussian 09 at Fri Sep  3 00:09:18 2021.
