 Gaussian 09, Revision E.01,
 Gaussian 09:  EM64L-G09RevE.01 30-Nov-2015

 --------------------
 #p opt freq SVWN/gen
 --------------------

 --------------------
 PY_SVWN_PC2_OPT_FREQ
 --------------------
 Symbolic Z-matrix:
 Charge =  0 Multiplicity = 1

 SCF Done:  E(RS-VWN) =  -321.899839919     A.U. after   17 cycles
 SCF Done:  E(RS-VWN) =  -321.900494701     A.U. after   10 cycles
 SCF Done:  E(RS-VWN) =  -321.900531762     A.U. after    9 cycles
 SCF Done:  E(RS-VWN) =  -321.900535808     A.U. after    8 cycles
 Optimization completed.
    -- Stationary point found.
 Normal termination of Gaussian 09 at Thu Aug 26 23:58:05 2021.

 -----------------------------------------------------------------
 #P Geom=AllCheck Guess=TCheck SCRF=Check GenChk RSVWN/ChkBas Freq
 -----------------------------------------------------------------

 Structure from the checkpoint file:  "PY_SVWN_PC2_OPT_FREQ.chk"
 --------------------
 PY_SVWN_PC2_OPT_FREQ
 --------------------
 Charge =  0 Multiplicity = 1

                         Standard orientation:
 ---------------------------------------------------------------------
 Center     Atomic      Atomic             Coordinates (Angstroms)
 Number     Number       Type             X           Y           Z
 ---------------------------------------------------------------------
      1          8           0       -0.140690    2.269397    0.000000
      2          7           0       -1.126171    0.227566    0.000000
      3          6           0       -0.000000    1.055713    0.000000
      4          6           0        1.232400    0.324274   -0.000000
      5          6           0       -1.111907   -1.117857    0.000000
      6          6           0        1.255644   -1.033895   -0.000000
      7          6           0        0.067150   -1.788919   -0.000000
      8          1           0       -2.008049    0.741512    0.000000
      9          1           0        2.144628    0.921738   -0.000000
     10          1           0       -2.083007   -1.615167    0.000000
     11          1           0        2.216733   -1.555003   -0.000000
     12          1           0        0.078692   -2.877105   -0.000000
 ---------------------------------------------------------------------

 SCF Done:  E(RS-VWN) =  -321.900535808     A.U. after    1 cycles

 The electronic state is 1-A'.
 Alpha  occ. eigenvalues --  -18.56917 -13.93645  -9.89009  -9.86306  -9.82468
 Alpha  occ. eigenvalues --   -9.81199  -9.80752  -0.97080  -0.90224  -0.77193
 Alpha  occ. eigenvalues --   -0.71346  -0.62023  -0.60655  -0.53855  -0.48597
 Alpha  occ. eigenvalues --   -0.46152  -0.43817  -0.43225  -0.39964  -0.36852
 Alpha  occ. eigenvalues --   -0.35647  -0.34090  -0.31204  -0.23676  -0.22808
 Alpha virt. eigenvalues --   -0.10759  -0.05675  -0.03300  -0.00272   0.01246
 Alpha virt. eigenvalues --    0.03839   0.04895   0.05586   0.07680   0.10435
 Alpha virt. eigenvalues --    0.10551   0.11261   0.12906   0.14590   0.14724

 Mulliken charges:
               1
     1  O   -0.424238
     2  N   -0.267290
     3  C    0.366102
     4  C   -0.193151
     5  C    0.138888
     6  C   -0.002767
     7  C   -0.192527
     8  H    0.180442
     9  H    0.099828
    10  H    0.107102
    11  H    0.098546
    12  H    0.089065
 Sum of Mulliken charges =  -0.00000

 Dipole moment (field-independent basis, Debye):
    X=             -1.2444    Y=             -4.1670    Z=              0.0000  Tot=              4.3488
 Quadrupole moment (field-independent basis, Debye-Ang):
   XX=            -31.4543   YY=            -47.6164   ZZ=            -43.2321
   XY=              0.2329   XZ=             -0.0000   YZ=              0.0000

  Exact polarizability:  75.180   0.048  91.736  -0.000  -0.000  38.244
 Approx polarizability: 149.503   1.608 201.592  -0.000  -0.000  64.244

                      1                      2                      3
                     A"                     A"                     A'
 Frequencies --    162.9774               384.5647               443.1035
 Red. masses --      5.6814                 3.2374                 5.8900
 Frc consts  --      0.0889                 0.2821                 0.6814
 IR Inten    --      3.5431                 0.4345                 6.9262

                      4                      5                      6
                     A"                     A'                     A'
 Frequencies --    476.3520               537.0406               606.6864
 Red. masses --      2.0332                 7.6831                 6.6570
 Frc consts  --      0.2718                 1.3056                 1.4436
 IR Inten    --     37.7405                 5.8229                 0.5988

                      7                      8                      9
                     A"                     A"                     A"
 Frequencies --    700.9758               729.5053               757.8726
 Red. masses --      1.5998                 1.2791                 1.9407
 Frc consts  --      0.4631                 0.4011                 0.6567
 IR Inten    --     46.6102                 4.9079                56.3087

                     10                     11                     12
                     A'                     A"                     A"
 Frequencies --    824.7373               838.3267               914.3187
 Red. masses --      4.8484                 1.8508                 1.3185
 Frc consts  --      1.9430                 0.7664                 0.6494
 IR Inten    --      4.3598                22.2307                 0.0185

                     13                     14                     15
                     A"                     A'                     A'
 Frequencies --    968.9740               981.2974              1023.2170
 Red. masses --      1.3009                 4.5432                 2.3362
 Frc consts  --      0.7197                 2.5776                 1.4411
 IR Inten    --      0.0807                10.7681                 5.5532

                     16                     17                     18
                     A'                     A'                     A'
 Frequencies --   1085.0681              1122.6271              1179.4382
 Red. masses --      1.4774                 1.1022                 1.1447
 Frc consts  --      1.0248                 0.8184                 0.9382
 IR Inten    --     19.5454                 8.6230                10.7959

                     19                     20                     21
                     A'                     A'                     A'
 Frequencies --   1242.9386              1341.5085              1415.2541
 Red. masses --      2.2546                 1.7056                 2.1484
 Frc consts  --      2.0522                 1.8085                 2.5353
 IR Inten    --     14.8807                 2.5497                 2.0417

                     22                     23                     24
                     A'                     A'                     A'
 Frequencies --   1470.0657              1575.9956              1642.6299
 Red. masses --      3.2467                 6.7993                 5.8636
 Frc consts  --      4.1340                 9.9501                 9.3217
 IR Inten    --      2.1507                49.7558                39.2311

                     25                     26                     27
                     A'                     A'                     A'
 Frequencies --   1749.7211              3103.5142              3131.0424
 Red. masses --      9.0354                 1.0897                 1.0918
 Frc consts  --     16.2981                 6.1842                 6.3064
 IR Inten    --    576.3727                 5.6199                 0.5209

                     28                     29                     30
                     A'                     A'                     A'
 Frequencies --   3144.3748              3163.0312              3492.5145
 Red. masses --      1.0940                 1.0969                 1.0775
 Frc consts  --      6.3727                 6.4656                 7.7434
 IR Inten    --      0.0163                 0.5795                67.5487

 - Thermochemistry -
 -------------------
 Temperature   298.150 Kelvin.  Pressure   1.00000 Atm.
 Atom     1 has atomic number  8 and mass  15.99491

 Molecular mass:    95.03711 amu.
 Principal axes and moments of inertia in atomic units:
                           1         2         3
     Eigenvalues --   313.43111 639.06174 952.49285
           X           -0.06383   0.99796   0.00000
           Y            0.99796   0.06383   0.00000
           Z           -0.00000   0.00000   1.00000
 This molecule is an asymmetric top.
 Rotational symmetry number  1.
 Rotational temperatures (Kelvin)      0.27634     0.13553     0.09093
 Rotational constants (GHZ):           5.75802     2.82405     1.89476
 Zero-point vibrational energy     240507.3 (Joules/Mol)
                                   57.48261 (Kcal/Mol)
 Warning -- explicit consideration of   6 degrees of freedom as
           vibrations may cause significant error
 Vibrational temperatures:    234.49   553.30   637.53   685.36   772.68
          (Kelvin)            872.89  1008.55  1049.59  1090.41  1186.61
                             1206.16  1315.50  1394.14  1411.87  1472.18
                             1561.17  1615.21  1696.95  1788.31  1930.13
                             2036.23  2115.09  2267.50  2363.38  2517.46
                             4465.26  4504.87  4524.05  4550.89  5024.94

 Zero-point correction=                           0.091604 (Hartree/Particle)
 Thermal correction to Energy=                    0.096971
 Thermal correction to Enthalpy=                  0.097915
 Thermal correction to Gibbs Free Energy=         0.062620
 Sum of electronic and zero-point Energies=           -321.808931
 Sum of electronic and thermal Energies=              -321.803565
 Sum of electronic and thermal Enthalpies=            -321.802620
 Sum of electronic and thermal Free Energies=         -321.837915

                     E (Thermal)             CV                S
                      KCal/Mol        Cal/Mol-Kelvin    Cal/Mol-Kelvin
 Total                   60.850             20.782             74.284
 Electronic               0.000              0.000              0.000
 Translational            0.889              2.981             39.566
 Rotational               0.889              2.981             26.748
 Vibrational             59.073             14.821              7.971
 Vibration     1          0.623              1.888              2.515
 Vibration     2          0.754              1.503              1.021
 Vibration     3          0.803              1.376              0.817
 Vibration     4          0.833              1.303              0.720
 Vibration     5          0.892              1.168              0.572
 Vibration     6          0.965              1.018              0.438

 Optimization completed.
    -- Stationary point found.
 Normal termination of Gaussian 09 at Thu Aug 26 23:58:36 2021.
