 Gaussian 09, Revision E.01,
 Gaussian 09:  EM64L-G09RevE.01 30-Nov-2015

 -----------------------------------------------
 #p opt=(calcfc,qst3,MaxCycle=200) freq SVWN/gen
 -----------------------------------------------

 --------------------
 HY_SVWN_PC2_OPT_FREQ
 --------------------
 Symbolic Z-matrix:
 Charge =  0 Multiplicity = 1

 --------------------
 PY_SVWN_PC2_OPT_FREQ
 --------------------
 Symbolic Z-matrix:
 Charge =  0 Multiplicity = 1

 ------------
 TST_GAS_SVWN
 ------------
 Symbolic Z-matrix:
 Charge =  0 Multiplicity = 1

 SCF Done:  E(RS-VWN) =  -321.834879549     A.U. after   16 cycles
 SCF Done:  E(RS-VWN) =  -321.847119873     A.U. after   14 cycles
 SCF Done:  E(RS-VWN) =  -321.854634956     A.U. after   14 cycles
 SCF Done:  E(RS-VWN) =  -321.855948282     A.U. after   13 cycles
 SCF Done:  E(RS-VWN) =  -321.856005999     A.U. after    9 cycles
 SCF Done:  E(RS-VWN) =  -321.856008078     A.U. after    9 cycles
 Optimization completed.
    -- Stationary point found.
 Normal termination of Gaussian 09 at Sat Aug 28 00:52:33 2021.

 -----------------------------------------------------------------
 #P Geom=AllCheck Guess=TCheck SCRF=Check GenChk RSVWN/ChkBas Freq
 -----------------------------------------------------------------

 Structure from the checkpoint file:  "TST_GAS_SVWN.chk"
 --------------------
 HY_SVWN_PC2_OPT_FREQ
 --------------------
 Charge =  0 Multiplicity = 1

                         Standard orientation:
 ---------------------------------------------------------------------
 Center     Atomic      Atomic             Coordinates (Angstroms)
 Number     Number       Type             X           Y           Z
 ---------------------------------------------------------------------
      1          8           0       -0.419718    2.182487    0.000000
      2          7           0       -1.105241    0.191367   -0.000000
      3          6           0       -0.000000    0.973889    0.000000
      4          6           0        1.268030    0.385391    0.000000
      5          6           0       -1.066927   -1.132858   -0.000000
      6          6           0        1.312424   -0.989726   -0.000000
      7          6           0        0.154526   -1.768601   -0.000000
      8          1           0       -1.553487    1.403508    0.000000
      9          1           0        2.166331    1.001395    0.000000
     10          1           0       -2.018113   -1.668665   -0.000000
     11          1           0        2.284922   -1.488031   -0.000000
     12          1           0        0.206460   -2.856247   -0.000000
 ---------------------------------------------------------------------

 SCF Done:  E(RS-VWN) =  -321.856008078     A.U. after    1 cycles

 The electronic state is 1-A'.
 Alpha  occ. eigenvalues --  -18.59977 -13.90934  -9.89323  -9.85888  -9.83010
 Alpha  occ. eigenvalues --   -9.81535  -9.81308  -0.99935  -0.88531  -0.76703
 Alpha  occ. eigenvalues --   -0.71288  -0.63103  -0.58964  -0.52196  -0.48794
 Alpha  occ. eigenvalues --   -0.44724  -0.43626  -0.42682  -0.40540  -0.37472
 Alpha  occ. eigenvalues --   -0.34118  -0.33087  -0.30873  -0.28101  -0.23237
 Alpha virt. eigenvalues --   -0.10804  -0.06525  -0.02258  -0.00046   0.01340
 Alpha virt. eigenvalues --    0.03007   0.04612   0.05537   0.07310   0.09995
 Alpha virt. eigenvalues --    0.10739   0.11090   0.12694   0.13432   0.14928

 Mulliken charges:
               1
     1  O   -0.443413
     2  N   -0.364780
     3  C    0.421066
     4  C   -0.178877
     5  C    0.123122
     6  C    0.015149
     7  C   -0.208548
     8  H    0.237924
     9  H    0.096433
    10  H    0.110325
    11  H    0.101030
    12  H    0.090568
 Sum of Mulliken charges =  -0.00000

 Dipole moment (field-independent basis, Debye):
    X=              0.3080    Y=             -3.3562    Z=             -0.0000  Tot=              3.3703
 Quadrupole moment (field-independent basis, Debye-Ang):
   XX=            -34.6205   YY=            -44.3220   ZZ=            -43.2401
   XY=              1.2083   XZ=             -0.0000   YZ=             -0.0000

  Exact polarizability:  76.148  -1.656  91.018   0.000  -0.000  38.090
 Approx polarizability: 157.343  -1.380 202.917   0.000   0.000  64.273

 ******    1 imaginary frequencies (negative Signs) ******

                      1                      2                      3
                     A'                     A"                     A"
 Frequencies --  -1618.5247               177.7335               403.7607
 Red. masses --      1.0727                 6.6830                 3.3059
 Frc consts  --      1.6556                 0.1244                 0.3175
 IR Inten    --    482.0805                 0.0329                 1.9717

                      4                      5                      6
                     A"                     A'                     A'
 Frequencies --    474.8876               488.1126               595.6268
 Red. masses --      2.3639                 6.9518                 7.0239
 Frc consts  --      0.3141                 0.9759                 1.4682
 IR Inten    --     19.0394                 2.5065                 1.8585

                      7                      8                      9
                     A'                     A"                     A"
 Frequencies --    661.4229               722.4859               749.4809
 Red. masses --      6.8544                 1.9966                 1.8299
 Frc consts  --      1.7668                 0.6140                 0.6056
 IR Inten    --      0.2822                23.1231                40.9424

                     10                     11                     12
                     A"                     A'                     A"
 Frequencies --    830.4807               895.4097               925.9802
 Red. masses --      1.4003                 5.3213                 1.3816
 Frc consts  --      0.5690                 2.5137                 0.6980
 IR Inten    --      2.5086                 6.5266                 1.7514

                     13                     14                     15
                     A"                     A'                     A'
 Frequencies --    962.2019               996.8378              1029.8598
 Red. masses --      1.3025                 4.5750                 2.0256
 Frc consts  --      0.7105                 2.6785                 1.2658
 IR Inten    --      0.0159                 7.4462                 6.5561

                     16                     17                     18
                     A"                     A'                     A'
 Frequencies --   1096.0312              1107.1142              1129.5370
 Red. masses --      1.1851                 1.3212                 1.0811
 Frc consts  --      0.8388                 0.9541                 0.8126
 IR Inten    --     52.4149                 6.2165                 6.5540

                     19                     20                     21
                     A'                     A'                     A'
 Frequencies --   1250.8832              1344.6791              1387.0264
 Red. masses --      1.5401                 3.8779                 2.4840
 Frc consts  --      1.4198                 4.1313                 2.8156
 IR Inten    --      2.7430                21.5441                 0.5560

                     22                     23                     24
                     A'                     A'                     A'
 Frequencies --   1464.1982              1537.2533              1586.0853
 Red. masses --      3.6533                 5.8148                 6.2395
 Frc consts  --      4.6147                 8.0961                 9.2481
 IR Inten    --      4.0453               203.5928                30.4816

                     25                     26                     27
                     A'                     A'                     A'
 Frequencies --   1667.5608              2082.2355              3111.4734
 Red. masses --      7.3861                 1.0848                 1.0897
 Frc consts  --     12.1012                 2.7711                 6.2156
 IR Inten    --    450.3947                47.9761                 3.3638

                     28                     29                     30
                     A'                     A'                     A'
 Frequencies --   3126.1445              3153.3334              3156.1775
 Red. masses --      1.0915                 1.0936                 1.0970
 Frc consts  --      6.2849                 6.4071                 6.4385
 IR Inten    --      1.2486                 0.2365                 0.3498

 - Thermochemistry -
 -------------------
 Temperature   298.150 Kelvin.  Pressure   1.00000 Atm.
 Atom     1 has atomic number  8 and mass  15.99491

 Molecular mass:    95.03711 amu.
 Principal axes and moments of inertia in atomic units:
                           1         2         3
     Eigenvalues --   310.87604 621.42058 932.29662
           X           -0.19595   0.98061   0.00000
           Y            0.98061   0.19595   0.00000
           Z           -0.00000  -0.00000   1.00000
 This molecule is an asymmetric top.
 Rotational symmetry number  1.
 Rotational temperatures (Kelvin)      0.27861     0.13938     0.09290
 Rotational constants (GHZ):           5.80534     2.90422     1.93580
    1 imaginary frequencies ignored.
 Zero-point vibrational energy     227972.4 (Joules/Mol)
                                   54.48672 (Kcal/Mol)
 Warning -- explicit consideration of   5 degrees of freedom as
           vibrations may cause significant error
 Vibrational temperatures:    255.72   580.92   683.26   702.28   856.97
          (Kelvin)            951.64  1039.49  1078.33  1194.87  1288.29
                             1332.28  1384.39  1434.23  1481.74  1576.94
                             1592.89  1625.15  1799.74  1934.69  1995.62
                             2106.65  2211.76  2282.02  2399.25  2995.87
                             4476.71  4497.82  4536.94  4541.03

 Zero-point correction=                           0.086830 (Hartree/Particle)
 Thermal correction to Energy=                    0.091936
 Thermal correction to Enthalpy=                  0.092881
 Thermal correction to Gibbs Free Energy=         0.058031
 Sum of electronic and zero-point Energies=           -321.769178
 Sum of electronic and thermal Energies=              -321.764072
 Sum of electronic and thermal Enthalpies=            -321.763127
 Sum of electronic and thermal Free Energies=         -321.797977

                     E (Thermal)             CV                S
                      KCal/Mol        Cal/Mol-Kelvin    Cal/Mol-Kelvin
 Total                   57.691             19.548             73.347
 Electronic               0.000              0.000              0.000
 Translational            0.889              2.981             39.566
 Rotational               0.889              2.981             26.690
 Vibrational             55.914             13.586              7.091
 Vibration     1          0.628              1.870              2.352
 Vibration     2          0.769              1.462              0.949
 Vibration     3          0.832              1.306              0.724
 Vibration     4          0.844              1.276              0.689
 Vibration     5          0.953              1.041              0.457

 Optimization completed.
    -- Stationary point found.
 Normal termination of Gaussian 09 at Sat Aug 28 00:53:05 2021.
