 Gaussian 09, Revision E.01,
 Gaussian 09:  EM64L-G09RevE.01 30-Nov-2015

 ------------------------------------------------------------
 #p gen geom=checkpoint b3lyp iop(5/33=1) nosymm extraoverlay
 ------------------------------------------------------------

 ---------------
 PY_H2O_XYG3_PC2
 ---------------
 Structure from the checkpoint file:  "./tmp/PY_H2O_XYG3_PC2.chk"
 Charge =  0 Multiplicity = 1

                          Input orientation:
 ---------------------------------------------------------------------
 Center     Atomic      Atomic             Coordinates (Angstroms)
 Number     Number       Type             X           Y           Z
 ---------------------------------------------------------------------
      1          8           0        1.260687    1.391203    0.008589
      2          7           0        0.250971   -0.656941    0.013793
      3          6           0        0.210590    0.738280    0.007955
      4          6           0       -1.120180    1.288072    0.000367
      5          6           0       -0.841307   -1.459771    0.007835
      6          6           0       -2.217652    0.481301   -0.004815
      7          6           0       -2.093777   -0.931088   -0.001792
      8          1           0        2.701648    0.273838   -0.042453
      9          1           0       -1.198541    2.364706   -0.003193
     10          1           0       -0.646440   -2.522196    0.010051
     11          1           0       -3.205278    0.924415   -0.012165
     12          1           0       -2.958591   -1.574804   -0.007442
     13          8           0        3.095071   -0.623998   -0.081966
     14          1           0        3.832750   -0.631007    0.531315
     15          1           0        1.190003   -1.055745    0.025855
 ---------------------------------------------------------------------

 SCF Done:  E(RB3LYP) =  -400.146454763     A.U. after   14 cycles

 Alpha  occ. eigenvalues --  -19.11616 -19.09193 -14.37644 -10.28317 -10.24384
 Alpha  occ. eigenvalues --  -10.20829 -10.19130 -10.18853  -1.04731  -1.00142
 Alpha  occ. eigenvalues --   -0.96758  -0.83150  -0.77040  -0.66596  -0.64851
 Alpha  occ. eigenvalues --   -0.57262  -0.53444  -0.51664  -0.49370  -0.47447
 Alpha  occ. eigenvalues --   -0.45279  -0.44362  -0.40328  -0.39401  -0.37933
 Alpha  occ. eigenvalues --   -0.35850  -0.32130  -0.31416  -0.27323  -0.23634
 Alpha virt. eigenvalues --   -0.05805  -0.00821   0.00780   0.02308   0.03501
 Alpha virt. eigenvalues --    0.05236   0.07339   0.09802   0.11272   0.11624
 Alpha virt. eigenvalues --    0.13414   0.14456   0.15750   0.17523   0.18030

 Mulliken charges:
               1
     1  O   -0.542824
     2  N   -0.242067
     3  C    0.450172
     4  C   -0.116416
     5  C    0.164899
     6  C    0.033985
     7  C   -0.123717
     8  H    0.245030
     9  H    0.054564
    10  H    0.060541
    11  H    0.055239
    12  H    0.046240
    13  O   -0.464962
    14  H    0.206726
    15  H    0.172589
 Sum of Mulliken charges =  -0.00000

 Dipole moment (field-independent basis, Debye):
    X=             -2.4420    Y=             -2.1983    Z=              1.0924  Tot=              3.4625
 Quadrupole moment (field-independent basis, Debye-Ang):
   XX=            -41.5939   YY=            -46.1116   ZZ=            -49.9632
   XY=             -2.1756   XZ=              4.6736   YZ=             -0.8948

 E2(B3LYP) =    -0.2100909045D+01 E(B3LYP) =    -0.40224736380850D+03
 Normal termination of Gaussian 09 at Sun Aug 29 12:47:04 2021.
