 Gaussian 09, Revision E.01,
 Gaussian 09:  EM64L-G09RevE.01 30-Nov-2015

 --------------------
 # opt freq b3lyp/gen
 --------------------

 --------------------------
 HY_aug-pc-2_B3LYP_OPT_FREQ
 --------------------------
 Symbolic Z-matrix:
 Charge =  0 Multiplicity = 1

 SCF Done:  E(RB3LYP) =  -323.623729454     A.U. after   13 cycles
 SCF Done:  E(RB3LYP) =  -323.652803349     A.U. after   13 cycles
 SCF Done:  E(RB3LYP) =  -323.660121477     A.U. after   12 cycles
 SCF Done:  E(RB3LYP) =  -323.660729250     A.U. after   11 cycles
 SCF Done:  E(RB3LYP) =  -323.660881499     A.U. after   11 cycles
 SCF Done:  E(RB3LYP) =  -323.660885272     A.U. after    9 cycles
 Optimization completed.
    -- Stationary point found.
 Normal termination of Gaussian 09 at Thu Aug 26 17:03:24 2021.

 ------------------------------------------------------------------
 #N Geom=AllCheck Guess=TCheck SCRF=Check GenChk RB3LYP/ChkBas Freq
 ------------------------------------------------------------------

 Structure from the checkpoint file:  "HY_aug-pc-2_B3LYP_OPT_FREQ.chk"
 --------------------------
 HY_aug-pc-2_B3LYP_OPT_FREQ
 --------------------------
 Charge =  0 Multiplicity = 1

                         Standard orientation:
 ---------------------------------------------------------------------
 Center     Atomic      Atomic             Coordinates (Angstroms)
 Number     Number       Type             X           Y           Z
 ---------------------------------------------------------------------
      1          8           0        0.005057    2.253565    0.000000
      2          7           0       -1.175752    0.294758    0.000000
      3          6           0        0.000000    0.900699    0.000000
      4          6           0        1.224378    0.226340    0.000000
      5          6           0       -1.189157   -1.042260    0.000000
      6          6           0        1.190095   -1.154621    0.000000
      7          6           0       -0.039388   -1.812898    0.000000
      8          1           0       -0.918913    2.535691    0.000000
      9          1           0        2.149154    0.783502    0.000000
     10          1           0       -2.168447   -1.505440    0.000000
     11          1           0        2.113560   -1.718075    0.000000
     12          1           0       -0.101115   -2.891073    0.000000
 ---------------------------------------------------------------------

 SCF Done:  E(RB3LYP) =  -323.660885272     A.U. after    1 cycles

 The electronic state is 1-A'.
 Alpha  occ. eigenvalues --  -19.16335 -14.31839 -10.27465 -10.21833 -10.20118
 Alpha  occ. eigenvalues --  -10.18819 -10.18357  -1.08448  -0.94811  -0.81596
 Alpha  occ. eigenvalues --   -0.76521  -0.65601  -0.63793  -0.56300  -0.52459
 Alpha  occ. eigenvalues --   -0.49133  -0.45536  -0.44581  -0.42300  -0.40755
 Alpha  occ. eigenvalues --   -0.37988  -0.36422  -0.30004  -0.28286  -0.24990
 Alpha virt. eigenvalues --   -0.04071  -0.01534  -0.01231  -0.00144   0.00364
 Alpha virt. eigenvalues --    0.01932   0.02309   0.02645   0.03685   0.04562
 Alpha virt. eigenvalues --    0.04836   0.05149   0.05422   0.05551   0.05754

 Mulliken charges:
               1
     1  O   -0.789546
     2  N   -0.909293
     3  C    2.146399
     4  C   -1.140192
     5  C    0.399745
     6  C    0.268591
     7  C   -0.471359
     8  H    0.275960
     9  H   -0.026274
    10  H    0.073857
    11  H    0.146074
    12  H    0.026037
 Sum of Mulliken charges =  -0.00000

 Dipole moment (field-independent basis, Debye):
    X=              0.5372    Y=             -1.2202    Z=             -0.0000  Tot=              1.3332
 Quadrupole moment (field-independent basis, Debye-Ang):
   XX=            -38.1583   YY=            -37.1529   ZZ=            -43.1986
   XY=             -1.9651   XZ=              0.0000   YZ=              0.0000

  Exact polarizability:  77.589  -0.022  89.269   0.000  -0.000  43.095
 Approx polarizability: 128.228   1.570 142.206  -0.000  -0.000  64.600

                      1                      2                      3
                     A"                     A'                     A"
 Frequencies --    216.5042               422.2170               425.6299
 Red. masses --      4.9682                 4.2187                 3.4506
 Frc consts  --      0.1372                 0.4431                 0.3683
 IR Inten    --      0.8561                16.1987                 0.2259

                      4                      5                      6
                     A"                     A"                     A'
 Frequencies --    499.2787               559.9753               568.3426
 Red. masses --      1.3349                 1.8633                 7.0787
 Frc consts  --      0.1961                 0.3443                 1.3472
 IR Inten    --     90.6223                21.5553                 0.7191

                      7                      8                      9
                     A'                     A"                     A"
 Frequencies --    642.9651               759.8773               801.9642
 Red. masses --      7.1191                 1.8384                 2.1534
 Frc consts  --      1.7340                 0.6254                 0.8160
 IR Inten    --      2.5528                 9.6709                52.6619

                     10                     11                     12
                     A'                     A"                     A"
 Frequencies --    862.0085               887.9854               987.6545
 Red. masses --      5.7910                 1.3918                 1.4063
 Frc consts  --      2.5353                 0.6466                 0.8082
 IR Inten    --     13.4406                 1.8880                 0.5766

                     13                     14                     15
                     A'                     A"                     A'
 Frequencies --   1009.6327              1016.7727              1063.5071
 Red. masses --      6.8830                 1.3242                 2.0689
 Frc consts  --      4.1338                 0.8066                 1.3787
 IR Inten    --      6.8343                 0.0525                 3.7502

                     16                     17                     18
                     A'                     A'                     A'
 Frequencies --   1109.6889              1167.1875              1198.9707
 Red. masses --      1.6350                 1.1916                 1.3145
 Frc consts  --      1.1863                 0.9564                 1.1134
 IR Inten    --     25.5139                38.1293               132.7493

                     19                     20                     21
                     A'                     A'                     A'
 Frequencies --   1309.2521              1321.2825              1372.1789
 Red. masses --      3.9585                 3.8994                 1.3444
 Frc consts  --      3.9978                 4.0109                 1.4914
 IR Inten    --      8.7092                97.1494                19.4727

                     22                     23                     24
                     A'                     A'                     A'
 Frequencies --   1490.7573              1511.4579              1623.2453
 Red. masses --      2.5677                 2.2780                 5.8320
 Frc consts  --      3.3621                 3.0661                 9.0540
 IR Inten    --     67.3555               101.5476                89.7402

                     25                     26                     27
                     A'                     A'                     A'
 Frequencies --   1644.8920              3162.3242              3180.4525
 Red. masses --      5.3712                 1.0894                 1.0889
 Frc consts  --      8.5624                 6.4186                 6.4895
 IR Inten    --     84.9413                13.5369                 7.0471

                     28                     29                     30
                     A'                     A'                     A'
 Frequencies --   3205.4109              3211.0879              3765.7454
 Red. masses --      1.0934                 1.0960                 1.0643
 Frc consts  --      6.6189                 6.6583                 8.8926
 IR Inten    --     11.4378                 1.9238                80.5215

 - Thermochemistry -
 -------------------
 Temperature   298.150 Kelvin.  Pressure   1.00000 Atm.
 Atom     1 has atomic number  8 and mass  15.99491

 Molecular mass:    95.03711 amu.
 Principal axes and moments of inertia in atomic units:
                           1         2         3
     Eigenvalues --   307.09253 650.12289 957.21542
           X           -0.02916   0.99957   0.00000
           Y            0.99957   0.02916   0.00000
           Z           -0.00000  -0.00000   1.00000
 This molecule is an asymmetric top.
 Rotational symmetry number  1.
 Rotational temperatures (Kelvin)      0.28204     0.13323     0.09049
 Rotational constants (GHZ):           5.87686     2.77600     1.88541
 Zero-point vibrational energy     245224.0 (Joules/Mol)
                                   58.60994 (Kcal/Mol)
 Warning -- explicit consideration of   6 degrees of freedom as
           vibrations may cause significant error
 Vibrational temperatures:    311.50   607.48   612.39   718.35   805.68
          (Kelvin)            817.72   925.08  1093.29  1153.85  1240.24
                             1277.61  1421.01  1452.63  1462.91  1530.15
                             1596.59  1679.32  1725.05  1883.72  1901.03
                             1974.26  2144.86  2174.65  2335.49  2366.63
                             4549.87  4575.96  4611.87  4620.03  5418.06

 Zero-point correction=                           0.093401 (Hartree/Particle)
 Thermal correction to Energy=                    0.098596
 Thermal correction to Enthalpy=                  0.099540
 Thermal correction to Gibbs Free Energy=         0.064620
 Sum of electronic and zero-point Energies=           -323.567484
 Sum of electronic and thermal Energies=              -323.562289
 Sum of electronic and thermal Enthalpies=            -323.561345
 Sum of electronic and thermal Free Energies=         -323.596265

                     E (Thermal)             CV                S
                      KCal/Mol        Cal/Mol-Kelvin    Cal/Mol-Kelvin
 Total                   61.870             20.238             73.496
 Electronic               0.000              0.000              0.000
 Translational            0.889              2.981             39.566
 Rotational               0.889              2.981             26.749
 Vibrational             60.092             14.276              7.180
 Vibration     1          0.645              1.816              1.988
 Vibration     2          0.785              1.422              0.884
 Vibration     3          0.787              1.414              0.873
 Vibration     4          0.855              1.252              0.660
 Vibration     5          0.916              1.118              0.524
 Vibration     6          0.924              1.100              0.507

 Optimization completed.
    -- Stationary point found.
 Normal termination of Gaussian 09 at Thu Aug 26 17:06:01 2021.
