 Gaussian 09, Revision E.01,
 Gaussian 09:  EM64L-G09RevE.01 30-Nov-2015

 ----------------------------------------------------------
 #p opt freq b3lyp/gen SCF(novaracc,noincfock) int=acc2e=12
 ----------------------------------------------------------

 --------------------------
 HY_aug-pc-3_B3LYP_OPT_FREQ
 --------------------------
 Symbolic Z-matrix:
 Charge =  0 Multiplicity = 1

 SCF Done:  E(RB3LYP) =  -323.638052327     A.U. after   12 cycles
 SCF Done:  E(RB3LYP) =  -323.667250338     A.U. after   11 cycles
 SCF Done:  E(RB3LYP) =  -323.674632783     A.U. after   11 cycles
 SCF Done:  E(RB3LYP) =  -323.675245411     A.U. after   10 cycles
 SCF Done:  E(RB3LYP) =  -323.675400383     A.U. after    9 cycles
 SCF Done:  E(RB3LYP) =  -323.675404067     A.U. after    7 cycles
 Optimization completed.
    -- Stationary point found.
 Normal termination of Gaussian 09 at Thu Aug 26 22:48:46 2021.

 ------------------------------------------------------------------
 #P Geom=AllCheck Guess=TCheck SCRF=Check GenChk RB3LYP/ChkBas Freq
 ------------------------------------------------------------------

 Structure from the checkpoint file:  "HY_aug-pc-3_B3LYP_OPT_FREQ.chk"
 --------------------------
 HY_aug-pc-3_B3LYP_OPT_FREQ
 --------------------------
 Charge =  0 Multiplicity = 1

                         Standard orientation:
 ---------------------------------------------------------------------
 Center     Atomic      Atomic             Coordinates (Angstroms)
 Number     Number       Type             X           Y           Z
 ---------------------------------------------------------------------
      1          8           0        0.005292    2.252581    0.000000
      2          7           0       -1.175239    0.294788    0.000000
      3          6           0        0.000000    0.900736    0.000000
      4          6           0        1.224072    0.226139    0.000000
      5          6           0       -1.189030   -1.041666    0.000000
      6          6           0        1.189672   -1.154473    0.000000
      7          6           0       -0.039631   -1.812385    0.000000
      8          1           0       -0.917962    2.535388    0.000000
      9          1           0        2.148605    0.782847    0.000000
     10          1           0       -2.167950   -1.504642    0.000000
     11          1           0        2.112671   -1.717781    0.000000
     12          1           0       -0.101526   -2.890088    0.000000
 ---------------------------------------------------------------------

 SCF Done:  E(RB3LYP) =  -323.675404068     A.U. after    1 cycles

 The electronic state is 1-A'.
 Alpha  occ. eigenvalues --  -19.16513 -14.31956 -10.27478 -10.21852 -10.20183
 Alpha  occ. eigenvalues --  -10.18879 -10.18420  -1.08446  -0.94788  -0.81577
 Alpha  occ. eigenvalues --   -0.76501  -0.65596  -0.63785  -0.56310  -0.52463
 Alpha  occ. eigenvalues --   -0.49135  -0.45532  -0.44596  -0.42305  -0.40750
 Alpha  occ. eigenvalues --   -0.37988  -0.36430  -0.30000  -0.28278  -0.24979
 Alpha virt. eigenvalues --   -0.04057  -0.01528  -0.01305  -0.00215   0.00314
 Alpha virt. eigenvalues --    0.01463   0.01810   0.02346   0.02878   0.03284
 Alpha virt. eigenvalues --    0.03437   0.03980   0.04364   0.04484   0.04717

 Mulliken charges:
               1
     1  O   -0.415075
     2  N   -0.393829
     3  C    0.442075
     4  C    0.203891
     5  C   -0.093734
     6  C   -0.102602
     7  C    0.065155
     8  H    0.255157
     9  H   -0.003828
    10  H    0.070990
    11  H   -0.006760
    12  H   -0.021440
 Sum of Mulliken charges =  -0.00000

 Dipole moment (field-independent basis, Debye):
    X=              0.5363    Y=             -1.2114    Z=              0.0000  Tot=              1.3248
 Quadrupole moment (field-independent basis, Debye-Ang):
   XX=            -38.1542   YY=            -37.1344   ZZ=            -43.1654
   XY=             -1.9640   XZ=             -0.0000   YZ=              0.0000

  Exact polarizability:  77.617  -0.011  89.300   0.000   0.000  43.134
 Approx polarizability: 128.275   1.583 142.252   0.000  -0.000  64.744

                      1                      2                      3
                     A"                     A'                     A"
 Frequencies --    216.3776               422.8597               425.5906
 Red. masses --      4.9698                 4.2201                 3.4552
 Frc consts  --      0.1371                 0.4446                 0.3687
 IR Inten    --      0.8633                16.1798                 0.2474

                      4                      5                      6
                     A"                     A"                     A'
 Frequencies --    499.9962               560.4516               568.7261
 Red. masses --      1.3391                 1.8545                 7.0784
 Frc consts  --      0.1972                 0.3432                 1.3489
 IR Inten    --     90.0265                21.9140                 0.7234

                      7                      8                      9
                     A'                     A"                     A"
 Frequencies --    643.3877               760.1604               802.2663
 Red. masses --      7.1191                 1.8426                 2.1562
 Frc consts  --      1.7363                 0.6273                 0.8177
 IR Inten    --      2.5567                 9.5954                52.6012

                     10                     11                     12
                     A'                     A"                     A"
 Frequencies --    862.3789               888.5939               988.4878
 Red. masses --      5.7890                 1.3891                 1.4060
 Frc consts  --      2.5366                 0.6462                 0.8094
 IR Inten    --     13.3021                 1.8379                 0.5677

                     13                     14                     15
                     A'                     A"                     A'
 Frequencies --   1010.2067              1017.5439              1063.6218
 Red. masses --      6.8947                 1.3232                 2.0716
 Frc consts  --      4.1456                 0.8072                 1.3808
 IR Inten    --      6.8583                 0.0507                 3.7646

                     16                     17                     18
                     A'                     A'                     A'
 Frequencies --   1110.1054              1167.6143              1199.7809
 Red. masses --      1.6369                 1.1955                 1.3160
 Frc consts  --      1.1885                 0.9603                 1.1161
 IR Inten    --     25.6183                37.9515               133.0073

                     19                     20                     21
                     A'                     A'                     A'
 Frequencies --   1309.2242              1322.0396              1373.3899
 Red. masses --      3.9946                 3.8746                 1.3402
 Frc consts  --      4.0342                 3.9899                 1.4894
 IR Inten    --      9.8042                97.3026                19.0544

                     22                     23                     24
                     A'                     A'                     A'
 Frequencies --   1491.8397              1512.7288              1623.9985
 Red. masses --      2.5621                 2.2714                 5.8085
 Frc consts  --      3.3596                 3.0625                 9.0258
 IR Inten    --     68.1181               100.2496                89.4896

                     25                     26                     27
                     A'                     A'                     A'
 Frequencies --   1645.5853              3158.3507              3176.3556
 Red. masses --      5.3467                 1.0894                 1.0890
 Frc consts  --      8.5305                 6.4028                 6.4733
 IR Inten    --     85.7355                13.6494                 7.1029

                     28                     29                     30
                     A'                     A'                     A'
 Frequencies --   3201.0211              3206.7160              3764.9181
 Red. masses --      1.0935                 1.0959                 1.0643
 Frc consts  --      6.6013                 6.6398                 8.8885
 IR Inten    --     11.5357                 1.9136                80.6107

 - Thermochemistry -
 -------------------
 Temperature   298.150 Kelvin.  Pressure   1.00000 Atm.
 Atom     1 has atomic number  8 and mass  15.99491

 Molecular mass:    95.03711 amu.
 Principal axes and moments of inertia in atomic units:
                           1         2         3
     Eigenvalues --   306.91141 649.67822 956.58963
           X           -0.02907   0.99958   0.00000
           Y            0.99958   0.02907   0.00000
           Z           -0.00000   0.00000   1.00000
 This molecule is an asymmetric top.
 Rotational symmetry number  1.
 Rotational temperatures (Kelvin)      0.28221     0.13332     0.09054
 Rotational constants (GHZ):           5.88033     2.77790     1.88664
 Zero-point vibrational energy     245200.5 (Joules/Mol)
                                   58.60432 (Kcal/Mol)
 Warning -- explicit consideration of   6 degrees of freedom as
           vibrations may cause significant error
 Vibrational temperatures:    311.32   608.40   612.33   719.38   806.36
          (Kelvin)            818.27   925.69  1093.70  1154.28  1240.77
                             1278.49  1422.21  1453.46  1464.02  1530.31
                             1597.19  1679.93  1726.22  1883.68  1902.12
                             1976.00  2146.42  2176.48  2336.57  2367.63
                             4544.16  4570.06  4605.55  4613.74  5416.87

 Zero-point correction=                           0.093392 (Hartree/Particle)
 Thermal correction to Energy=                    0.098584
 Thermal correction to Enthalpy=                  0.099529
 Thermal correction to Gibbs Free Energy=         0.064613
 Sum of electronic and zero-point Energies=           -323.582012
 Sum of electronic and thermal Energies=              -323.576820
 Sum of electronic and thermal Enthalpies=            -323.575875
 Sum of electronic and thermal Free Energies=         -323.610791

                     E (Thermal)             CV                S
                      KCal/Mol        Cal/Mol-Kelvin    Cal/Mol-Kelvin
 Total                   61.863             20.224             73.486
 Electronic               0.000              0.000              0.000
 Translational            0.889              2.981             39.566
 Rotational               0.889              2.981             26.747
 Vibrational             60.085             14.263              7.173
 Vibration     1          0.645              1.816              1.989
 Vibration     2          0.785              1.421              0.882
 Vibration     3          0.787              1.415              0.873
 Vibration     4          0.855              1.250              0.658
 Vibration     5          0.916              1.117              0.523
 Vibration     6          0.925              1.099              0.507

 Optimization completed.
    -- Stationary point found.
 Normal termination of Gaussian 09 at Thu Aug 26 23:39:42 2021.
