 Gaussian 09, Revision E.01,
 Gaussian 09:  EM64L-G09RevE.01 30-Nov-2015

 --------------------
 # opt freq b3lyp/gen
 --------------------

 ----------------------
 HY_pc-3_B3LYP_OPT_FREQ
 ----------------------
 Symbolic Z-matrix:
 Charge =  0 Multiplicity = 1

 SCF Done:  E(RB3LYP) =  -323.637958182     A.U. after   13 cycles
 SCF Done:  E(RB3LYP) =  -323.667159075     A.U. after   11 cycles
 SCF Done:  E(RB3LYP) =  -323.674542985     A.U. after   12 cycles
 SCF Done:  E(RB3LYP) =  -323.675155265     A.U. after   11 cycles
 SCF Done:  E(RB3LYP) =  -323.675310278     A.U. after    9 cycles
 SCF Done:  E(RB3LYP) =  -323.675313997     A.U. after    7 cycles
 Optimization completed.
    -- Stationary point found.
 Normal termination of Gaussian 09 at Thu Aug 26 16:49:39 2021.

 ------------------------------------------------------------------
 #N Geom=AllCheck Guess=TCheck SCRF=Check GenChk RB3LYP/ChkBas Freq
 ------------------------------------------------------------------

 Structure from the checkpoint file:  "HY_pc-3_B3LYP_OPT_FREQ.chk"
 ----------------------
 HY_pc-3_B3LYP_OPT_FREQ
 ----------------------
 Charge =  0 Multiplicity = 1

                         Standard orientation:
 ---------------------------------------------------------------------
 Center     Atomic      Atomic             Coordinates (Angstroms)
 Number     Number       Type             X           Y           Z
 ---------------------------------------------------------------------
      1          8           0        0.005225    2.252592   -0.000000
      2          7           0       -1.175206    0.294764   -0.000000
      3          6           0        0.000000    0.900738   -0.000000
      4          6           0        1.224066    0.226156    0.000000
      5          6           0       -1.188995   -1.041689   -0.000000
      6          6           0        1.189672   -1.154444    0.000000
      7          6           0       -0.039609   -1.812389    0.000000
      8          1           0       -0.918053    2.535295   -0.000000
      9          1           0        2.148592    0.782864    0.000000
     10          1           0       -2.167920   -1.504654   -0.000000
     11          1           0        2.112679   -1.717735    0.000000
     12          1           0       -0.101468   -2.890090    0.000000
 ---------------------------------------------------------------------

 SCF Done:  E(RB3LYP) =  -323.675313998     A.U. after    1 cycles

 The electronic state is 1-A'.
 Alpha  occ. eigenvalues --  -19.16508 -14.31953 -10.27475 -10.21851 -10.20182
 Alpha  occ. eigenvalues --  -10.18877 -10.18420  -1.08442  -0.94786  -0.81574
 Alpha  occ. eigenvalues --   -0.76499  -0.65594  -0.63783  -0.56308  -0.52461
 Alpha  occ. eigenvalues --   -0.49133  -0.45531  -0.44592  -0.42302  -0.40748
 Alpha  occ. eigenvalues --   -0.37985  -0.36426  -0.29997  -0.28275  -0.24975
 Alpha virt. eigenvalues --   -0.04040  -0.01460   0.00150   0.01194   0.02331
 Alpha virt. eigenvalues --    0.04231   0.05602   0.06284   0.06912   0.09373
 Alpha virt. eigenvalues --    0.09570   0.09916   0.10368   0.12036   0.12327

 Mulliken charges:
               1
     1  O   -0.462881
     2  N   -0.530266
     3  C    0.481453
     4  C   -0.036046
     5  C    0.091346
     6  C   -0.048679
     7  C   -0.017398
     8  H    0.277077
     9  H    0.065925
    10  H    0.073838
    11  H    0.058041
    12  H    0.047590
 Sum of Mulliken charges =  -0.00000

 Dipole moment (field-independent basis, Debye):
    X=              0.5325    Y=             -1.2152    Z=             -0.0000  Tot=              1.3267
 Quadrupole moment (field-independent basis, Debye-Ang):
   XX=            -38.1504   YY=            -37.1221   ZZ=            -43.1710
   XY=             -1.9710   XZ=             -0.0000   YZ=             -0.0000

  Exact polarizability:  77.043   0.000  88.631   0.000   0.000  42.655
 Approx polarizability: 127.536   1.578 141.419   0.000   0.000  64.236

                      1                      2                      3
                     A"                     A'                     A"
 Frequencies --    216.3377               422.8698               425.5361
 Red. masses --      4.9706                 4.2200                 3.4565
 Frc consts  --      0.1371                 0.4446                 0.3688
 IR Inten    --      0.8704                16.2268                 0.2478

                      4                      5                      6
                     A"                     A"                     A'
 Frequencies --    499.7034               560.2972               568.7443
 Red. masses --      1.3370                 1.8585                 7.0789
 Frc consts  --      0.1967                 0.3437                 1.3491
 IR Inten    --     90.6822                21.7328                 0.7153

                      7                      8                      9
                     A'                     A"                     A"
 Frequencies --    643.4030               760.1111               801.9504
 Red. masses --      7.1194                 1.8403                 2.1578
 Frc consts  --      1.7364                 0.6264                 0.8176
 IR Inten    --      2.5407                 9.7431                52.6339

                     10                     11                     12
                     A'                     A"                     A"
 Frequencies --    862.3994               887.8442               987.5344
 Red. masses --      5.7893                 1.3902                 1.4060
 Frc consts  --      2.5369                 0.6457                 0.8079
 IR Inten    --     13.4250                 1.8894                 0.5641

                     13                     14                     15
                     A'                     A"                     A'
 Frequencies --   1010.2120              1016.4185              1063.6343
 Red. masses --      6.8947                 1.3226                 2.0716
 Frc consts  --      4.1457                 0.8050                 1.3809
 IR Inten    --      6.9189                 0.0466                 3.7716

                     16                     17                     18
                     A'                     A'                     A'
 Frequencies --   1110.1358              1167.6765              1199.8217
 Red. masses --      1.6371                 1.1956                 1.3160
 Frc consts  --      1.1887                 0.9605                 1.1162
 IR Inten    --     25.7580                38.0222               133.4129

                     19                     20                     21
                     A'                     A'                     A'
 Frequencies --   1309.2254              1322.0497              1373.4345
 Red. masses --      3.9929                 3.8765                 1.3401
 Frc consts  --      4.0324                 3.9920                 1.4893
 IR Inten    --      9.8768                97.2597                19.1283

                     22                     23                     24
                     A'                     A'                     A'
 Frequencies --   1491.8765              1512.7758              1624.0230
 Red. masses --      2.5617                 2.2714                 5.8081
 Frc consts  --      3.3593                 3.0626                 9.0255
 IR Inten    --     68.1666               100.5600                89.7528

                     25                     26                     27
                     A'                     A'                     A'
 Frequencies --   1645.5950              3158.2816              3176.2885
 Red. masses --      5.3460                 1.0894                 1.0890
 Frc consts  --      8.5295                 6.4025                 6.4730
 IR Inten    --     86.0135                13.7727                 7.1535

                     28                     29                     30
                     A'                     A'                     A'
 Frequencies --   3200.9862              3206.7110              3764.9867
 Red. masses --      1.0935                 1.0959                 1.0643
 Frc consts  --      6.6012                 6.6398                 8.8888
 IR Inten    --     11.6577                 1.9241                80.9233

 - Thermochemistry -
 -------------------
 Temperature   298.150 Kelvin.  Pressure   1.00000 Atm.
 Atom     1 has atomic number  8 and mass  15.99491

 Molecular mass:    95.03711 amu.
 Principal axes and moments of inertia in atomic units:
                           1         2         3
     Eigenvalues --   306.90280 649.67916 956.58196
           X           -0.02909   0.99958   0.00000
           Y            0.99958   0.02909   0.00000
           Z           -0.00000   0.00000   1.00000
 This molecule is an asymmetric top.
 Rotational symmetry number  1.
 Rotational temperatures (Kelvin)      0.28222     0.13332     0.09055
 Rotational constants (GHZ):           5.88050     2.77790     1.88666
 Zero-point vibrational energy     245179.8 (Joules/Mol)
                                   58.59938 (Kcal/Mol)
 Warning -- explicit consideration of   6 degrees of freedom as
           vibrations may cause significant error
 Vibrational temperatures:    311.26   608.41   612.25   718.96   806.14
          (Kelvin)            818.30   925.71  1093.63  1153.83  1240.80
                             1277.41  1420.84  1453.47  1462.40  1530.33
                             1597.24  1680.02  1726.27  1883.68  1902.13
                             1976.06  2146.47  2176.54  2336.60  2367.64
                             4544.06  4569.97  4605.50  4613.74  5416.97

 Zero-point correction=                           0.093384 (Hartree/Particle)
 Thermal correction to Energy=                    0.098578
 Thermal correction to Enthalpy=                  0.099522
 Thermal correction to Gibbs Free Energy=         0.064605
 Sum of electronic and zero-point Energies=           -323.581930
 Sum of electronic and thermal Energies=              -323.576736
 Sum of electronic and thermal Enthalpies=            -323.575792
 Sum of electronic and thermal Free Energies=         -323.610709

                     E (Thermal)             CV                S
                      KCal/Mol        Cal/Mol-Kelvin    Cal/Mol-Kelvin
 Total                   61.858             20.229             73.489
 Electronic               0.000              0.000              0.000
 Translational            0.889              2.981             39.566
 Rotational               0.889              2.981             26.747
 Vibrational             60.081             14.268              7.176
 Vibration     1          0.645              1.816              1.990
 Vibration     2          0.785              1.421              0.882
 Vibration     3          0.787              1.415              0.873
 Vibration     4          0.855              1.251              0.659
 Vibration     5          0.916              1.117              0.523
 Vibration     6          0.925              1.099              0.507

 Optimization completed.
    -- Stationary point found.
 Normal termination of Gaussian 09 at Thu Aug 26 16:58:52 2021.
