 Gaussian 09, Revision E.01,
 Gaussian 09:  EM64L-G09RevE.01 30-Nov-2015

 --------------------
 # opt freq b3lyp/gen
 --------------------

 ----------------------
 HY_pc-1_B3LYP_OPT_FREQ
 ----------------------
 Symbolic Z-matrix:
 Charge =  0 Multiplicity = 1

 SCF Done:  E(RB3LYP) =  -323.433300964     A.U. after   14 cycles
 SCF Done:  E(RB3LYP) =  -323.462181349     A.U. after   14 cycles
 SCF Done:  E(RB3LYP) =  -323.469329498     A.U. after   14 cycles
 SCF Done:  E(RB3LYP) =  -323.469888023     A.U. after   12 cycles
 SCF Done:  E(RB3LYP) =  -323.470010528     A.U. after   10 cycles
 SCF Done:  E(RB3LYP) =  -323.470013632     A.U. after    8 cycles
 Optimization completed.
    -- Stationary point found.
 Normal termination of Gaussian 09 at Thu Aug 26 16:34:12 2021.

 ------------------------------------------------------------------
 #N Geom=AllCheck Guess=TCheck SCRF=Check GenChk RB3LYP/ChkBas Freq
 ------------------------------------------------------------------

 Structure from the checkpoint file:  "HY_pc-1_B3LYP_OPT_FREQ.chk"
 ----------------------
 HY_pc-1_B3LYP_OPT_FREQ
 ----------------------
 Charge =  0 Multiplicity = 1

                         Standard orientation:
 ---------------------------------------------------------------------
 Center     Atomic      Atomic             Coordinates (Angstroms)
 Number     Number       Type             X           Y           Z
 ---------------------------------------------------------------------
      1          8           0        0.001839    2.257391    0.000000
      2          7           0       -1.180779    0.296570   -0.000000
      3          6           0        0.000000    0.905556    0.000000
      4          6           0        1.229937    0.228968    0.000000
      5          6           0       -1.192115   -1.044953   -0.000000
      6          6           0        1.196140   -1.156991    0.000000
      7          6           0       -0.037831   -1.818512   -0.000000
      8          1           0       -0.934924    2.526396   -0.000000
      9          1           0        2.159833    0.791984    0.000000
     10          1           0       -2.178623   -1.510203   -0.000000
     11          1           0        2.126403   -1.723516    0.000000
     12          1           0       -0.098737   -2.904184   -0.000000
 ---------------------------------------------------------------------

 SCF Done:  E(RB3LYP) =  -323.470013632     A.U. after    1 cycles

 The electronic state is 1-A'.
 Alpha  occ. eigenvalues --  -19.16175 -14.31917 -10.27813 -10.22372 -10.20711
 Alpha  occ. eigenvalues --  -10.19324 -10.18911  -1.08798  -0.95123  -0.81891
 Alpha  occ. eigenvalues --   -0.76777  -0.65745  -0.63902  -0.56279  -0.52443
 Alpha  occ. eigenvalues --   -0.49200  -0.45633  -0.44520  -0.42356  -0.40839
 Alpha  occ. eigenvalues --   -0.38023  -0.36278  -0.29999  -0.28244  -0.24898
 Alpha virt. eigenvalues --   -0.03833  -0.01206   0.04621   0.05249   0.07859
 Alpha virt. eigenvalues --    0.10190   0.11728   0.13512   0.20500   0.23238
 Alpha virt. eigenvalues --    0.24236   0.27504   0.29955   0.37941   0.39854

 Mulliken charges:
               1
     1  O   -0.377833
     2  N   -0.456933
     3  C    0.410993
     4  C   -0.100408
     5  C    0.145645
     6  C    0.016132
     7  C   -0.143434
     8  H    0.222804
     9  H    0.074313
    10  H    0.077644
    11  H    0.069580
    12  H    0.061496
 Sum of Mulliken charges =   0.00000

 Dipole moment (field-independent basis, Debye):
    X=              0.4419    Y=             -1.2039    Z=             -0.0000  Tot=              1.2825
 Quadrupole moment (field-independent basis, Debye-Ang):
   XX=            -38.1747   YY=            -37.0165   ZZ=            -43.6178
   XY=             -2.0948   XZ=             -0.0000   YZ=             -0.0000

  Exact polarizability:  69.241   0.421  80.603   0.000   0.000  26.000
 Approx polarizability: 116.669   1.439 132.893   0.000   0.000  37.769

                      1                      2                      3
                     A"                     A'                     A"
 Frequencies --    218.4331               420.4805               424.4341
 Red. masses --      4.9636                 4.1942                 3.4897
 Frc consts  --      0.1395                 0.4369                 0.3704
 IR Inten    --      0.9320                17.3357                 0.3641

                      4                      5                      6
                     A"                     A"                     A'
 Frequencies --    501.9417               566.7918               568.4354
 Red. masses --      1.4036                 1.7351                 7.0027
 Frc consts  --      0.2084                 0.3284                 1.3331
 IR Inten    --     95.6469                31.2578                 0.5419

                      7                      8                      9
                     A'                     A"                     A"
 Frequencies --    641.0348               754.5328               795.2758
 Red. masses --      7.0688                 1.9708                 2.1354
 Frc consts  --      1.7114                 0.6611                 0.7957
 IR Inten    --      2.5598                 5.9476                69.0872

                     10                     11                     12
                     A'                     A"                     A"
 Frequencies --    864.7291               877.8108               977.7225
 Red. masses --      5.6327                 1.3600                 1.4013
 Frc consts  --      2.4816                 0.6174                 0.7892
 IR Inten    --     11.5490                 1.9982                 0.5544

                     13                     14                     15
                     A"                     A'                     A'
 Frequencies --   1003.8958              1006.6576              1060.2147
 Red. masses --      1.3017                 6.7194                 2.0101
 Frc consts  --      0.7730                 4.0119                 1.3313
 IR Inten    --      0.0377                 8.0606                 3.4341

                     16                     17                     18
                     A'                     A'                     A'
 Frequencies --   1104.8138              1161.6534              1198.9002
 Red. masses --      1.5977                 1.1574                 1.3127
 Frc consts  --      1.1490                 0.9202                 1.1117
 IR Inten    --     25.7952                29.9816               141.5421

                     19                     20                     21
                     A'                     A'                     A'
 Frequencies --   1319.9588              1334.5814              1365.6185
 Red. masses --      3.3963                 3.2350                 1.5207
 Frc consts  --      3.4864                 3.3948                 1.6709
 IR Inten    --      6.3764                62.9708                50.3746

                     22                     23                     24
                     A'                     A'                     A'
 Frequencies --   1490.8663              1512.9815              1632.3991
 Red. masses --      2.5916                 2.5976                 6.0354
 Frc consts  --      3.3939                 3.5035                 9.4757
 IR Inten    --     32.2029               148.1084                82.5961

                     25                     26                     27
                     A'                     A'                     A'
 Frequencies --   1654.8087              3174.5159              3192.3268
 Red. masses --      5.6228                 1.0902                 1.0897
 Frc consts  --      9.0719                 6.4734                 6.5431
 IR Inten    --    106.0516                12.6250                 6.2960

                     28                     29                     30
                     A'                     A'                     A'
 Frequencies --   3215.8902              3222.1624              3716.7035
 Red. masses --      1.0947                 1.0969                 1.0642
 Frc consts  --      6.6706                 6.7098                 8.6616
 IR Inten    --      8.7760                 0.8688                96.7947

 - Thermochemistry -
 -------------------
 Temperature   298.150 Kelvin.  Pressure   1.00000 Atm.
 Atom     1 has atomic number  8 and mass  15.99491

 Molecular mass:    95.03711 amu.
 Principal axes and moments of inertia in atomic units:
                           1         2         3
     Eigenvalues --   309.76533 653.24887 963.01420
           X           -0.03125   0.99951   0.00000
           Y            0.99951   0.03125   0.00000
           Z           -0.00000  -0.00000   1.00000
 This molecule is an asymmetric top.
 Rotational symmetry number  1.
 Rotational temperatures (Kelvin)      0.27961     0.13259     0.08994
 Rotational constants (GHZ):           5.82616     2.76272     1.87405
 Zero-point vibrational energy     245118.2 (Joules/Mol)
                                   58.58467 (Kcal/Mol)
 Warning -- explicit consideration of   6 degrees of freedom as
           vibrations may cause significant error
 Vibrational temperatures:    314.28   604.98   610.67   722.18   815.49
          (Kelvin)            817.85   922.30  1085.60  1144.22  1244.15
                             1262.97  1406.72  1444.38  1448.35  1525.41
                             1589.58  1671.36  1724.95  1899.12  1920.16
                             1964.82  2145.02  2176.84  2348.66  2380.90
                             4567.41  4593.04  4626.94  4635.97  5347.50

 Zero-point correction=                           0.093361 (Hartree/Particle)
 Thermal correction to Energy=                    0.098559
 Thermal correction to Enthalpy=                  0.099504
 Thermal correction to Gibbs Free Energy=         0.064573
 Sum of electronic and zero-point Energies=           -323.376653
 Sum of electronic and thermal Energies=              -323.371454
 Sum of electronic and thermal Enthalpies=            -323.370510
 Sum of electronic and thermal Free Energies=         -323.405440

                     E (Thermal)             CV                S
                      KCal/Mol        Cal/Mol-Kelvin    Cal/Mol-Kelvin
 Total                   61.847             20.283             73.517
 Electronic               0.000              0.000              0.000
 Translational            0.889              2.981             39.566
 Rotational               0.889              2.981             26.769
 Vibrational             60.070             14.321              7.182
 Vibration     1          0.646              1.813              1.972
 Vibration     2          0.783              1.426              0.890
 Vibration     3          0.786              1.417              0.877
 Vibration     4          0.857              1.246              0.653
 Vibration     5          0.923              1.103              0.510
 Vibration     6          0.924              1.100              0.507

 Optimization completed.
    -- Stationary point found.
 Normal termination of Gaussian 09 at Thu Aug 26 16:34:26 2021.
