 Gaussian 09, Revision E.01,
 Gaussian 09:  EM64L-G09RevE.01 30-Nov-2015

 --------------------
 # opt freq b3lyp/gen
 --------------------

 ----------------------
 HY_pc-2_B3LYP_OPT_FREQ
 ----------------------
 Symbolic Z-matrix:
 Charge =  0 Multiplicity = 1

 SCF Done:  E(RB3LYP) =  -323.622060627     A.U. after   14 cycles
 SCF Done:  E(RB3LYP) =  -323.651241260     A.U. after   13 cycles
 SCF Done:  E(RB3LYP) =  -323.658608568     A.U. after   13 cycles
 SCF Done:  E(RB3LYP) =  -323.659217106     A.U. after   11 cycles
 SCF Done:  E(RB3LYP) =  -323.659369102     A.U. after   10 cycles
 SCF Done:  E(RB3LYP) =  -323.659372885     A.U. after    8 cycles
 Optimization completed.
    -- Stationary point found.
 Normal termination of Gaussian 09 at Thu Aug 26 16:35:51 2021.

 ------------------------------------------------------------------
 #N Geom=AllCheck Guess=TCheck SCRF=Check GenChk RB3LYP/ChkBas Freq
 ------------------------------------------------------------------

 Structure from the checkpoint file:  "HY_pc-2_B3LYP_OPT_FREQ.chk"
 ----------------------
 HY_pc-2_B3LYP_OPT_FREQ
 ----------------------
 Charge =  0 Multiplicity = 1

                         Standard orientation:
 ---------------------------------------------------------------------
 Center     Atomic      Atomic             Coordinates (Angstroms)
 Number     Number       Type             X           Y           Z
 ---------------------------------------------------------------------
      1          8           0        0.004416    2.253332   -0.000000
      2          7           0       -1.175619    0.294652    0.000000
      3          6           0        0.000000    0.900796   -0.000000
      4          6           0        1.224403    0.226471   -0.000000
      5          6           0       -1.188721   -1.042255    0.000000
      6          6           0        1.190137   -1.154321   -0.000000
      7          6           0       -0.039165   -1.812862    0.000000
      8          1           0       -0.919946    2.533872    0.000000
      9          1           0        2.148974    0.783872   -0.000000
     10          1           0       -2.168081   -1.505323    0.000000
     11          1           0        2.113734   -1.717540   -0.000000
     12          1           0       -0.100602   -2.891079    0.000000
 ---------------------------------------------------------------------

 SCF Done:  E(RB3LYP) =  -323.659372885     A.U. after    1 cycles

 The electronic state is 1-A'.
 Alpha  occ. eigenvalues --  -19.16210 -14.31756 -10.27399 -10.21776 -10.20054
 Alpha  occ. eigenvalues --  -10.18747 -10.18296  -1.08424  -0.94810  -0.81597
 Alpha  occ. eigenvalues --   -0.76520  -0.65592  -0.63778  -0.56281  -0.52453
 Alpha  occ. eigenvalues --   -0.49128  -0.45527  -0.44568  -0.42276  -0.40740
 Alpha  occ. eigenvalues --   -0.37959  -0.36391  -0.30001  -0.28251  -0.24969
 Alpha virt. eigenvalues --   -0.03961  -0.01316   0.01839   0.02716   0.04191
 Alpha virt. eigenvalues --    0.06232   0.07974   0.12742   0.13400   0.15302
 Alpha virt. eigenvalues --    0.15493   0.16374   0.18202   0.18985   0.19736

 Mulliken charges:
               1
     1  O   -0.389976
     2  N   -0.412734
     3  C    0.492054
     4  C   -0.133466
     5  C    0.126973
     6  C    0.043656
     7  C   -0.133103
     8  H    0.210233
     9  H    0.048280
    10  H    0.055504
    11  H    0.052127
    12  H    0.040453
 Sum of Mulliken charges =   0.00000

 Dipole moment (field-independent basis, Debye):
    X=              0.4987    Y=             -1.2480    Z=             -0.0000  Tot=              1.3439
 Quadrupole moment (field-independent basis, Debye-Ang):
   XX=            -38.1280   YY=            -37.0911   ZZ=            -43.2171
   XY=             -2.0406   XZ=              0.0000   YZ=              0.0000

  Exact polarizability:  74.211   0.158  85.542   0.000  -0.000  38.229
 Approx polarizability: 123.023   1.590 137.191  -0.000  -0.000  58.102

                      1                      2                      3
                     A"                     A'                     A"
 Frequencies --    215.9221               422.3620               424.8451
 Red. masses --      4.9834                 4.2203                 3.4778
 Frc consts  --      0.1369                 0.4436                 0.3698
 IR Inten    --      0.8629                16.5708                 0.2115

                      4                      5                      6
                     A"                     A"                     A'
 Frequencies --    498.4544               559.5900               568.5578
 Red. masses --      1.3422                 1.8553                 7.0756
 Frc consts  --      0.1965                 0.3423                 1.3476
 IR Inten    --     95.2043                22.8869                 0.6559

                      7                      8                      9
                     A'                     A"                     A"
 Frequencies --    642.8346               759.0268               799.6692
 Red. masses --      7.1178                 1.9452                 2.0875
 Frc consts  --      1.7330                 0.6603                 0.7865
 IR Inten    --      2.4526                 8.2262                58.3307

                     10                     11                     12
                     A'                     A"                     A"
 Frequencies --    862.3430               884.9078               983.3483
 Red. masses --      5.7937                 1.3770                 1.4016
 Frc consts  --      2.5384                 0.6353                 0.7985
 IR Inten    --     14.1731                 1.6665                 0.4648

                     13                     14                     15
                     A"                     A'                     A'
 Frequencies --   1009.1610              1009.5996              1063.5629
 Red. masses --      1.3074                 6.8662                 2.0679
 Frc consts  --      0.7845                 4.1235                 1.3782
 IR Inten    --      0.0359                 7.3728                 3.8563

                     16                     17                     18
                     A'                     A'                     A'
 Frequencies --   1110.0213              1167.9238              1199.6538
 Red. masses --      1.6347                 1.1899                 1.3156
 Frc consts  --      1.1867                 0.9563                 1.1156
 IR Inten    --     26.5220                38.8041               136.1484

                     19                     20                     21
                     A'                     A'                     A'
 Frequencies --   1310.6748              1322.3592              1372.6428
 Red. masses --      3.9534                 3.8775                 1.3456
 Frc consts  --      4.0014                 3.9948                 1.4937
 IR Inten    --      9.8727                94.4067                21.3688

                     22                     23                     24
                     A'                     A'                     A'
 Frequencies --   1491.4731              1512.0954              1623.9974
 Red. masses --      2.5703                 2.2867                 5.8341
 Frc consts  --      3.3687                 3.0804                 9.0656
 IR Inten    --     65.8969               104.4141                89.4366

                     25                     26                     27
                     A'                     A'                     A'
 Frequencies --   1645.6807              3163.1416              3181.2232
 Red. masses --      5.3749                 1.0893                 1.0889
 Frc consts  --      8.5765                 6.4216                 6.4929
 IR Inten    --     87.5758                13.9279                 7.3701

                     28                     29                     30
                     A'                     A'                     A'
 Frequencies --   3206.3142              3212.6458              3767.2690
 Red. masses --      1.0937                 1.0957                 1.0643
 Frc consts  --      6.6246                 6.6633                 8.8996
 IR Inten    --     11.6222                 1.7550                80.7676

 - Thermochemistry -
 -------------------
 Temperature   298.150 Kelvin.  Pressure   1.00000 Atm.
 Atom     1 has atomic number  8 and mass  15.99491

 Molecular mass:    95.03711 amu.
 Principal axes and moments of inertia in atomic units:
                           1         2         3
     Eigenvalues --   307.03321 650.00070 957.03391
           X           -0.02945   0.99957   0.00000
           Y            0.99957   0.02945   0.00000
           Z           -0.00000   0.00000   1.00000
 This molecule is an asymmetric top.
 Rotational symmetry number  1.
 Rotational temperatures (Kelvin)      0.28210     0.13325     0.09050
 Rotational constants (GHZ):           5.87800     2.77652     1.88577
 Zero-point vibrational energy     245182.4 (Joules/Mol)
                                   58.60001 (Kcal/Mol)
 Warning -- explicit consideration of   6 degrees of freedom as
           vibrations may cause significant error
 Vibrational temperatures:    310.66   607.68   611.26   717.16   805.12
          (Kelvin)            818.03   924.89  1092.07  1150.54  1240.72
                             1273.18  1414.82  1451.96  1452.59  1530.23
                             1597.07  1680.38  1726.03  1885.77  1902.58
                             1974.92  2145.89  2175.57  2336.57  2367.76
                             4551.05  4577.06  4613.17  4622.27  5420.25

 Zero-point correction=                           0.093385 (Hartree/Particle)
 Thermal correction to Energy=                    0.098585
 Thermal correction to Enthalpy=                  0.099530
 Thermal correction to Gibbs Free Energy=         0.064601
 Sum of electronic and zero-point Energies=           -323.565988
 Sum of electronic and thermal Energies=              -323.560788
 Sum of electronic and thermal Enthalpies=            -323.559843
 Sum of electronic and thermal Free Energies=         -323.594772

                     E (Thermal)             CV                S
                      KCal/Mol        Cal/Mol-Kelvin    Cal/Mol-Kelvin
 Total                   61.863             20.261             73.513
 Electronic               0.000              0.000              0.000
 Translational            0.889              2.981             39.566
 Rotational               0.889              2.981             26.749
 Vibrational             60.086             14.300              7.198
 Vibration     1          0.645              1.817              1.993
 Vibration     2          0.785              1.422              0.884
 Vibration     3          0.787              1.416              0.876
 Vibration     4          0.854              1.253              0.662
 Vibration     5          0.915              1.119              0.525
 Vibration     6          0.925              1.099              0.507

 Optimization completed.
    -- Stationary point found.
 Normal termination of Gaussian 09 at Thu Aug 26 16:36:28 2021.
