 Gaussian 09, Revision E.01,
 Gaussian 09:  EM64L-G09RevE.01 30-Nov-2015

 --------------------
 # opt freq b3lyp/gen
 --------------------

 ----------------------
 HY_pc-0_B3LYP_OPT_FREQ
 ----------------------
 Symbolic Z-matrix:
 Charge =  0 Multiplicity = 1

 SCF Done:  E(RB3LYP) =  -322.610891158     A.U. after   15 cycles
 SCF Done:  E(RB3LYP) =  -322.635586159     A.U. after   14 cycles
 SCF Done:  E(RB3LYP) =  -322.640229164     A.U. after   13 cycles
 SCF Done:  E(RB3LYP) =  -322.640605990     A.U. after   12 cycles
 SCF Done:  E(RB3LYP) =  -322.640673977     A.U. after   11 cycles
 SCF Done:  E(RB3LYP) =  -322.640677581     A.U. after    9 cycles
 Optimization completed.
    -- Stationary point found.
 Normal termination of Gaussian 09 at Thu Aug 26 16:33:15 2021.

 ------------------------------------------------------------------
 #N Geom=AllCheck Guess=TCheck SCRF=Check GenChk RB3LYP/ChkBas Freq
 ------------------------------------------------------------------

 Structure from the checkpoint file:  "HY_pc-0_B3LYP_OPT_FREQ.chk"
 ----------------------
 HY_pc-0_B3LYP_OPT_FREQ
 ----------------------
 Charge =  0 Multiplicity = 1

                         Standard orientation:
 ---------------------------------------------------------------------
 Center     Atomic      Atomic             Coordinates (Angstroms)
 Number     Number       Type             X           Y           Z
 ---------------------------------------------------------------------
      1          8           0       -0.021575    2.293856    0.000000
      2          7           0       -1.182703    0.279123    0.000000
      3          6           0        0.000000    0.913403    0.000000
      4          6           0        1.236889    0.240512    0.000000
      5          6           0       -1.200897   -1.083546    0.000000
      6          6           0        1.211389   -1.155214    0.000000
      7          6           0       -0.022566   -1.837814    0.000000
      8          1           0       -0.963989    2.611082    0.000000
      9          1           0        2.163001    0.810017    0.000000
     10          1           0       -2.186493   -1.550236    0.000000
     11          1           0        2.148194   -1.713553    0.000000
     12          1           0       -0.058081   -2.926067    0.000000
 ---------------------------------------------------------------------

 SCF Done:  E(RB3LYP) =  -322.640677581     A.U. after    1 cycles

 The electronic state is 1-A'.
 Alpha  occ. eigenvalues --  -19.20610 -14.36831 -10.32247 -10.26419 -10.24495
 Alpha  occ. eigenvalues --  -10.23317 -10.22918  -1.07479  -0.95772  -0.82343
 Alpha  occ. eigenvalues --   -0.77522  -0.66224  -0.64402  -0.56491  -0.52961
 Alpha  occ. eigenvalues --   -0.49929  -0.46809  -0.44022  -0.42453  -0.40846
 Alpha  occ. eigenvalues --   -0.36429  -0.35542  -0.29947  -0.26791  -0.24981
 Alpha virt. eigenvalues --   -0.03711  -0.01357   0.08036   0.08893   0.12090
 Alpha virt. eigenvalues --    0.13197   0.14496   0.15576   0.22860   0.27614
 Alpha virt. eigenvalues --    0.31090   0.35768   0.36384   0.49057   0.52687

 Mulliken charges:
               1
     1  O   -0.417435
     2  N   -0.381626
     3  C    0.301187
     4  C   -0.191909
     5  C   -0.059107
     6  C   -0.126788
     7  C   -0.213859
     8  H    0.336460
     9  H    0.193987
    10  H    0.197473
    11  H    0.185206
    12  H    0.176411
 Sum of Mulliken charges =  -0.00000

 Dipole moment (field-independent basis, Debye):
    X=              0.3103    Y=             -1.4419    Z=              0.0000  Tot=              1.4750
 Quadrupole moment (field-independent basis, Debye-Ang):
   XX=            -37.4673   YY=            -36.3772   ZZ=            -43.9667
   XY=             -2.6173   XZ=              0.0000   YZ=              0.0000

  Exact polarizability:  63.067   0.116  75.844  -0.000  -0.000  16.072
 Approx polarizability: 109.512   1.280 129.587   0.000   0.000  19.316

                      1                      2                      3
                     A"                     A'                     A"
 Frequencies --    220.9581               379.6589               432.7298
 Red. masses --      4.7498                 3.9231                 3.3562
 Frc consts  --      0.1366                 0.3332                 0.3703
 IR Inten    --      1.2086                24.6065                 0.6467

                      4                      5                      6
                     A"                     A'                     A"
 Frequencies --    501.4551               561.5787               584.9800
 Red. masses --      1.5943                 7.3105                 1.6000
 Frc consts  --      0.2362                 1.3584                 0.3226
 IR Inten    --     98.4719                 0.9493                77.6766

                      7                      8                      9
                     A'                     A"                     A"
 Frequencies --    646.9477               765.4686               819.8618
 Red. masses --      7.3654                 2.2615                 1.7133
 Frc consts  --      1.8163                 0.7807                 0.6785
 IR Inten    --      3.4800                 0.2651               115.2349

                     10                     11                     12
                     A'                     A"                     A'
 Frequencies --    855.5139               921.5521               986.4307
 Red. masses --      5.7992                 1.3475                 6.3801
 Frc consts  --      2.5008                 0.6742                 3.6577
 IR Inten    --      9.0461                 5.3623                 7.1115

                     13                     14                     15
                     A"                     A'                     A"
 Frequencies --   1002.6565              1039.6278              1046.3697
 Red. masses --      1.4260                 2.1788                 1.3525
 Frc consts  --      0.8447                 1.3875                 0.8725
 IR Inten    --      1.6007                 5.0962                 0.7878

                     16                     17                     18
                     A'                     A'                     A'
 Frequencies --   1085.0858              1158.3428              1193.3370
 Red. masses --      1.7563                 1.3235                 1.1296
 Frc consts  --      1.2184                 1.0463                 0.9477
 IR Inten    --    107.4720               134.4226                 6.3578

                     19                     20                     21
                     A'                     A'                     A'
 Frequencies --   1322.4440              1340.1824              1367.5731
 Red. masses --      2.9260                 3.7190                 1.5850
 Frc consts  --      3.0150                 3.9356                 1.7466
 IR Inten    --      3.3460                46.4418                 4.7019

                     22                     23                     24
                     A'                     A'                     A'
 Frequencies --   1482.2455              1515.9562              1616.9585
 Red. masses --      1.9963                 2.8488                 5.7753
 Frc consts  --      2.5841                 3.8573                 8.8966
 IR Inten    --      7.7762               138.0982                50.8289

                     25                     26                     27
                     A'                     A'                     A'
 Frequencies --   1644.3370              3213.0059              3219.6170
 Red. masses --      5.4748                 1.0886                 1.0916
 Frc consts  --      8.7217                 6.6211                 6.6671
 IR Inten    --    104.4426                 2.0845                 6.5751

                     28                     29                     30
                     A'                     A'                     A'
 Frequencies --   3241.8451              3259.5549              3583.3186
 Red. masses --      1.0974                 1.0960                 1.0639
 Frc consts  --      6.7954                 6.8610                 8.0485
 IR Inten    --      5.4935                 0.0109                95.7286

 - Thermochemistry -
 -------------------
 Temperature   298.150 Kelvin.  Pressure   1.00000 Atm.
 Atom     1 has atomic number  8 and mass  15.99491

 Molecular mass:    95.03711 amu.
 Principal axes and moments of inertia in atomic units:
                           1         2         3
     Eigenvalues --   313.79656 671.96898 985.76554
           X           -0.03379   0.99943   0.00000
           Y            0.99943   0.03379   0.00000
           Z           -0.00000  -0.00000   1.00000
 This molecule is an asymmetric top.
 Rotational symmetry number  1.
 Rotational temperatures (Kelvin)      0.27602     0.12890     0.08786
 Rotational constants (GHZ):           5.75131     2.68575     1.83080
 Zero-point vibrational energy     245291.8 (Joules/Mol)
                                   58.62616 (Kcal/Mol)
 Warning -- explicit consideration of   6 degrees of freedom as
           vibrations may cause significant error
 Vibrational temperatures:    317.91   546.24   622.60   721.48   807.99
          (Kelvin)            841.65   930.81  1101.34  1179.60  1230.89
                             1325.91  1419.25  1442.60  1495.79  1505.49
                             1561.19  1666.59  1716.94  1902.70  1928.22
                             1967.63  2132.62  2181.12  2326.44  2365.83
                             4622.79  4632.30  4664.29  4689.77  5155.59

 Zero-point correction=                           0.093427 (Hartree/Particle)
 Thermal correction to Energy=                    0.098626
 Thermal correction to Enthalpy=                  0.099571
 Thermal correction to Gibbs Free Energy=         0.064599
 Sum of electronic and zero-point Energies=           -322.547251
 Sum of electronic and thermal Energies=              -322.542051
 Sum of electronic and thermal Enthalpies=            -322.541107
 Sum of electronic and thermal Free Energies=         -322.576078

                     E (Thermal)             CV                S
                      KCal/Mol        Cal/Mol-Kelvin    Cal/Mol-Kelvin
 Total                   61.889             20.203             73.604
 Electronic               0.000              0.000              0.000
 Translational            0.889              2.981             39.566
 Rotational               0.889              2.981             26.833
 Vibrational             60.112             14.241              7.205
 Vibration     1          0.648              1.809              1.951
 Vibration     2          0.750              1.514              1.041
 Vibration     3          0.794              1.399              0.850
 Vibration     4          0.857              1.247              0.654
 Vibration     5          0.917              1.114              0.521
 Vibration     6          0.942              1.064              0.476

 Optimization completed.
    -- Stationary point found.
 Normal termination of Gaussian 09 at Thu Aug 26 16:33:30 2021.
