 Gaussian 09, Revision E.01,
 Gaussian 09:  EM64L-G09RevE.01 30-Nov-2015

 -------------------------
 #p opt freq BHandHLYP/gen
 -------------------------

 -----------------------------
 HY_H2O_BHandHLYP_PC2_OPT_FREQ
 -----------------------------
 Symbolic Z-matrix:
 Charge =  0 Multiplicity = 1

 SCF Done:  E(RBHandHLYP) =  -399.899036005     A.U. after   13 cycles
 SCF Done:  E(RBHandHLYP) =  -399.900677579     A.U. after   10 cycles
 SCF Done:  E(RBHandHLYP) =  -399.900726617     A.U. after    9 cycles
 SCF Done:  E(RBHandHLYP) =  -399.900741274     A.U. after    8 cycles
 SCF Done:  E(RBHandHLYP) =  -399.900752770     A.U. after    8 cycles
 SCF Done:  E(RBHandHLYP) =  -399.900763138     A.U. after    9 cycles
 SCF Done:  E(RBHandHLYP) =  -399.900771127     A.U. after    9 cycles
 SCF Done:  E(RBHandHLYP) =  -399.900776749     A.U. after    8 cycles
 SCF Done:  E(RBHandHLYP) =  -399.900778424     A.U. after    8 cycles
 SCF Done:  E(RBHandHLYP) =  -399.900779387     A.U. after    7 cycles
 SCF Done:  E(RBHandHLYP) =  -399.900780616     A.U. after    8 cycles
 SCF Done:  E(RBHandHLYP) =  -399.900780810     A.U. after    7 cycles
 Optimization completed.
    -- Stationary point found.
 Normal termination of Gaussian 09 at Fri Aug 27 00:40:25 2021.

 ----------------------------------------------------------------------
 #P Geom=AllCheck Guess=TCheck SCRF=Check GenChk RBHandHLYP/ChkBas Freq
 ----------------------------------------------------------------------

 Structure from the checkpoint file:  "HY_H2O_BHandHLYP_PC2_OPT_FREQ.chk"
 -----------------------------
 HY_H2O_BHandHLYP_PC2_OPT_FREQ
 -----------------------------
 Charge =  0 Multiplicity = 1

                         Standard orientation:
 ---------------------------------------------------------------------
 Center     Atomic      Atomic             Coordinates (Angstroms)
 Number     Number       Type             X           Y           Z
 ---------------------------------------------------------------------
      1          8           0        1.197892    1.433062    0.000160
      2          7           0        0.297162   -0.660277   -0.002474
      3          6           0        0.130944    0.646278    0.001351
      4          6           0       -1.126934    1.244389    0.007019
      5          6           0       -0.782605   -1.434984   -0.003925
      6          6           0       -2.226400    0.431359    0.006818
      7          6           0       -2.062097   -0.947009    0.000894
      8          1           0        2.006105    0.904364   -0.013177
      9          1           0       -1.200396    2.313381    0.009710
     10          1           0       -0.599799   -2.494265   -0.009919
     11          1           0       -3.210859    0.860542    0.010276
     12          1           0       -2.901301   -1.613509   -0.000858
     13          8           0        3.096226   -0.568594   -0.081932
     14          1           0        3.633680   -0.893804    0.628717
     15          1           0        2.242054   -1.010707   -0.026201
 ---------------------------------------------------------------------

 SCF Done:  E(RBHandHLYP) =  -399.900780810     A.U. after    1 cycles

 The electronic state is 1-A.
 Alpha  occ. eigenvalues --  -19.69809 -19.67871 -14.80210 -10.68769 -10.63003
 Alpha  occ. eigenvalues --  -10.60991 -10.59040 -10.58817  -1.22057  -1.15426
 Alpha  occ. eigenvalues --   -1.08030  -0.93426  -0.87675  -0.75322  -0.73292
 Alpha  occ. eigenvalues --   -0.64824  -0.62983  -0.60112  -0.56939  -0.52893
 Alpha  occ. eigenvalues --   -0.51965  -0.49480  -0.48714  -0.46759  -0.44533
 Alpha  occ. eigenvalues --   -0.42812  -0.40355  -0.35274  -0.34761  -0.28779
 Alpha virt. eigenvalues --    0.00527   0.03658   0.04153   0.05189   0.06675
 Alpha virt. eigenvalues --    0.08434   0.10010   0.12898   0.14593   0.17759
 Alpha virt. eigenvalues --    0.18235   0.19489   0.20022   0.21599   0.22541

 Mulliken charges:
               1
     1  O   -0.442682
     2  N   -0.540366
     3  C    0.585742
     4  C   -0.113813
     5  C    0.207661
     6  C    0.081171
     7  C   -0.145969
     8  H    0.234391
     9  H    0.033769
    10  H    0.032965
    11  H    0.036180
    12  H    0.021140
    13  O   -0.453559
    14  H    0.216690
    15  H    0.246681
 Sum of Mulliken charges =  -0.00000

 Dipole moment (field-independent basis, Debye):
    X=             -1.7477    Y=             -1.4863    Z=              1.2939  Tot=              2.6339
 Quadrupole moment (field-independent basis, Debye-Ang):
   XX=            -41.3014   YY=            -44.6557   ZZ=            -49.5571
   XY=             -3.4348   XZ=              5.2127   YZ=             -1.3179

  Exact polarizability:  91.980   2.098  80.488   0.878  -0.183  43.378
 Approx polarizability: 108.002   3.890 104.266   0.889  -0.339  57.214

                      1                      2                      3
                      A                      A                      A
 Frequencies --     67.0745               144.2945               189.1576
 Red. masses --      5.0117                 4.5155                 7.3597
 Frc consts  --      0.0133                 0.0554                 0.1552
 IR Inten    --      4.7119                22.4309                 3.9795

                      4                      5                      6
                      A                      A                      A
 Frequencies --    226.1346               261.4488               384.6016
 Red. masses --      4.0449                 1.1468                 1.1740
 Frc consts  --      0.1219                 0.0462                 0.1023
 IR Inten    --      6.9897               122.2271                77.5393

                      7                      8                      9
                      A                      A                      A
 Frequencies --    450.1379               486.4427               561.7907
 Red. masses --      3.1725                 4.3690                 2.5856
 Frc consts  --      0.3787                 0.6091                 0.4808
 IR Inten    --     12.3627                28.5912                12.9790

                     10                     11                     12
                      A                      A                      A
 Frequencies --    595.9615               669.5551               717.8587
 Red. masses --      6.8408                 5.9503                 1.1327
 Frc consts  --      1.4315                 1.5717                 0.3439
 IR Inten    --      1.1487                 1.4778               187.2581

                     13                     14                     15
                      A                      A                      A
 Frequencies --    786.6737               816.9446               839.4108
 Red. masses --      1.5186                 1.1784                 2.1936
 Frc consts  --      0.5537                 0.4634                 0.9107
 IR Inten    --     97.6210                60.2247                79.7284

                     16                     17                     18
                      A                      A                      A
 Frequencies --    900.6675               929.1867              1040.7307
 Red. masses --      5.8483                 1.4383                 1.3954
 Frc consts  --      2.7952                 0.7316                 0.8905
 IR Inten    --     10.7122                 2.6675                 0.5310

                     19                     20                     21
                      A                      A                      A
 Frequencies --   1053.9835              1066.5855              1102.9986
 Red. masses --      7.0941                 1.3239                 2.0181
 Frc consts  --      4.6432                 0.8873                 1.4466
 IR Inten    --     12.8156                 0.1731                 5.8455

                     22                     23                     24
                      A                      A                      A
 Frequencies --   1164.8107              1202.8643              1297.6913
 Red. masses --      1.5695                 1.2390                 2.2380
 Frc consts  --      1.2546                 1.0562                 2.2206
 IR Inten    --      3.5778                25.0176                72.9498

                     25                     26                     27
                      A                      A                      A
 Frequencies --   1347.7917              1403.8779              1466.0780
 Red. masses --      1.9085                 3.4214                 1.2747
 Frc consts  --      2.0426                 3.9729                 1.6142
 IR Inten    --     49.9615                82.2284                86.9978

                     28                     29                     30
                      A                      A                      A
 Frequencies --   1563.6566              1581.8175              1680.7079
 Red. masses --      2.3584                 2.4716                 1.2212
 Frc consts  --      3.3974                 3.6436                 2.0325
 IR Inten    --     44.6724               159.0951               101.0022

                     31                     32                     33
                      A                      A                      A
 Frequencies --   1699.8615              1735.0883              3263.1829
 Red. masses --      3.8035                 4.4934                 1.0900
 Frc consts  --      6.4753                 7.9702                 6.8383
 IR Inten    --     95.6189               129.0276                11.4669

                     34                     35                     36
                      A                      A                      A
 Frequencies --   3276.6917              3305.2717              3311.0402
 Red. masses --      1.0903                 1.0948                 1.0966
 Frc consts  --      6.8969                 7.0470                 7.0829
 IR Inten    --      8.3570                 8.7061                 0.8115

                     37                     38                     39
                      A                      A                      A
 Frequencies --   3661.3391              3745.0964              4041.5025
 Red. masses --      1.0665                 1.0607                 1.0700
 Frc consts  --      8.4233                 8.7656                10.2971
 IR Inten    --    197.1728               994.8714               112.2414

 - Thermochemistry -
 -------------------
 Temperature   298.150 Kelvin.  Pressure   1.00000 Atm.
 Atom     1 has atomic number  8 and mass  15.99491

 Molecular mass:   113.04768 amu.
 Principal axes and moments of inertia in atomic units:
                           1         2         3
     Eigenvalues --   441.155091265.907971703.56285
           X            0.99990  -0.01312   0.00610
           Y            0.01314   0.99990  -0.00420
           Z           -0.00605   0.00428   0.99997
 This molecule is an asymmetric top.
 Rotational symmetry number  1.
 Warning -- assumption of classical behavior for rotation
           may cause significant error
 Rotational temperatures (Kelvin)      0.19633     0.06842     0.05084
 Rotational constants (GHZ):           4.09095     1.42565     1.05939
 Zero-point vibrational energy     323231.0 (Joules/Mol)
                                   77.25407 (Kcal/Mol)
 Warning -- explicit consideration of  10 degrees of freedom as
           vibrations may cause significant error
 Vibrational temperatures:     96.51   207.61   272.16   325.36   376.17
          (Kelvin)            553.36   647.65   699.88   808.29   857.45
                              963.34  1032.84  1131.85  1175.40  1207.72
                             1295.86  1336.89  1497.38  1516.45  1534.58
                             1586.97  1675.90  1730.65  1867.09  1939.17
                             2019.86  2109.36  2249.75  2275.88  2418.16
                             2445.72  2496.40  4694.99  4714.42  4755.54
                             4763.84  5267.84  5388.35  5814.81

 Zero-point correction=                           0.123112 (Hartree/Particle)
 Thermal correction to Energy=                    0.130889
 Thermal correction to Enthalpy=                  0.131833
 Thermal correction to Gibbs Free Energy=         0.090654
 Sum of electronic and zero-point Energies=           -399.777669
 Sum of electronic and thermal Energies=              -399.769892
 Sum of electronic and thermal Enthalpies=            -399.768948
 Sum of electronic and thermal Free Energies=         -399.810127

                     E (Thermal)             CV                S
                      KCal/Mol        Cal/Mol-Kelvin    Cal/Mol-Kelvin
 Total                   82.134             28.431             86.668
 Electronic               0.000              0.000              0.000
 Translational            0.889              2.981             40.084
 Rotational               0.889              2.981             28.344
 Vibrational             80.356             22.469             18.240
 Vibration     1          0.598              1.970              4.237
 Vibration     2          0.616              1.909              2.746
 Vibration     3          0.633              1.855              2.236
 Vibration     4          0.650              1.801              1.909
 Vibration     5          0.669              1.743              1.652
 Vibration     6          0.754              1.503              1.021
 Vibration     7          0.809              1.361              0.795
 Vibration     8          0.842              1.280              0.693
 Vibration     9          0.917              1.114              0.520
 Vibration    10          0.954              1.040              0.457

 Normal termination of Gaussian 09 at Fri Aug 27 00:41:28 2021.
