 Gaussian 09, Revision E.01,
 Gaussian 09:  EM64L-G09RevE.01 30-Nov-2015

 ----------------------------------------------------------------------
 #p opt=(calcfc,qst3,maxcycle=200) freq gen geom=connectivity bhandhlyp
 ----------------------------------------------------------------------

 -----------------------------
 HY_H2O_BHandHLYP_PC2_OPT_FREQ
 -----------------------------
 Symbolic Z-matrix:
 Charge =  0 Multiplicity = 1

 -----------------------------
 PY_H2O_BHandHLYP_PC2_OPT_FREQ
 -----------------------------
 Symbolic Z-matrix:
 Charge =  0 Multiplicity = 1

 -----------------
 TST_H2O_BHandHLYP
 -----------------
 Symbolic Z-matrix:
 Charge =  0 Multiplicity = 1

 SCF Done:  E(RBHandHLYP) =  -399.859746937     A.U. after   13 cycles
 SCF Done:  E(RBHandHLYP) =  -399.863697191     A.U. after   12 cycles
 SCF Done:  E(RBHandHLYP) =  -399.869579801     A.U. after   12 cycles
 SCF Done:  E(RBHandHLYP) =  -399.871742508     A.U. after   11 cycles
 SCF Done:  E(RBHandHLYP) =  -399.872202512     A.U. after   11 cycles
 SCF Done:  E(RBHandHLYP) =  -399.872287854     A.U. after   10 cycles
 SCF Done:  E(RBHandHLYP) =  -399.872297843     A.U. after    9 cycles
 SCF Done:  E(RBHandHLYP) =  -399.872033819     A.U. after   11 cycles
 SCF Done:  E(RBHandHLYP) =  -399.872303369     A.U. after   11 cycles
 SCF Done:  E(RBHandHLYP) =  -399.872305694     A.U. after    8 cycles
 Optimization completed.
    -- Stationary point found.
 Normal termination of Gaussian 09 at Sat Aug 28 23:59:05 2021.

 ----------------------------------------------------------------------
 #P Geom=AllCheck Guess=TCheck SCRF=Check GenChk RBHandHLYP/ChkBas Freq
 ----------------------------------------------------------------------

 Structure from the checkpoint file:  "TST_H2O_BHandHLYP.chk"
 -----------------------------
 HY_H2O_BHandHLYP_PC2_OPT_FREQ
 -----------------------------
 Charge =  0 Multiplicity = 1

                         Standard orientation:
 ---------------------------------------------------------------------
 Center     Atomic      Atomic             Coordinates (Angstroms)
 Number     Number       Type             X           Y           Z
 ---------------------------------------------------------------------
      1          8           0        1.367542    1.309067   -0.006149
      2          7           0        0.311706   -0.673773   -0.004634
      3          6           0        0.260574    0.668950   -0.000570
      4          6           0       -0.994750    1.300071    0.008542
      5          6           0       -0.792062   -1.421130   -0.004779
      6          6           0       -2.118076    0.531770    0.009558
      7          6           0       -2.032106   -0.864160    0.002466
      8          1           0        2.195935    0.514613   -0.019471
      9          1           0       -1.028364    2.370751    0.011780
     10          1           0       -0.641193   -2.483710   -0.012778
     11          1           0       -3.082964    1.003868    0.014784
     12          1           0       -2.907766   -1.480389    0.001040
     13          8           0        2.706182   -0.640815   -0.080906
     14          1           0        3.273100   -0.869083    0.643817
     15          1           0        1.478034   -0.978661   -0.001591
 ---------------------------------------------------------------------

 SCF Done:  E(RBHandHLYP) =  -399.872305694     A.U. after    1 cycles

 The electronic state is 1-A.
 Alpha  occ. eigenvalues --  -19.66997 -19.63554 -14.83588 -10.70172 -10.65104
 Alpha  occ. eigenvalues --  -10.62267 -10.59909 -10.59887  -1.21413  -1.09890
 Alpha  occ. eigenvalues --   -1.09302  -0.94871  -0.88691  -0.76878  -0.73998
 Alpha  occ. eigenvalues --   -0.65260  -0.63961  -0.58960  -0.56534  -0.54601
 Alpha  occ. eigenvalues --   -0.53215  -0.51336  -0.47983  -0.46923  -0.43122
 Alpha  occ. eigenvalues --   -0.42275  -0.36731  -0.36440  -0.34493  -0.28898
 Alpha virt. eigenvalues --   -0.01202   0.03092   0.03868   0.05612   0.06615
 Alpha virt. eigenvalues --    0.08408   0.09827   0.13798   0.15325   0.16762
 Alpha virt. eigenvalues --    0.17728   0.18447   0.19216   0.20774   0.22069

 Mulliken charges:
               1
     1  O   -0.544923
     2  N   -0.417521
     3  C    0.561357
     4  C   -0.106130
     5  C    0.220303
     6  C    0.089322
     7  C   -0.137624
     8  H    0.320301
     9  H    0.037390
    10  H    0.048247
    11  H    0.041748
    12  H    0.026425
    13  O   -0.638523
    14  H    0.202066
    15  H    0.297561
 Sum of Mulliken charges =  -0.00000

 Dipole moment (field-independent basis, Debye):
    X=             -3.5003    Y=             -1.5662    Z=              1.3427  Tot=              4.0630
 Quadrupole moment (field-independent basis, Debye-Ang):
   XX=            -45.6897   YY=            -44.7394   ZZ=            -49.3982
   XY=             -2.2960   XZ=              4.8496   YZ=             -1.3153

  Exact polarizability:  98.447   1.913  80.311   0.986  -0.266  42.879
 Approx polarizability: 114.807   5.420 104.509   0.970  -0.347  56.978

 ******    1 imaginary frequencies (negative Signs) ******

                      1                      2                      3
                      A                      A                      A
 Frequencies --  -1642.3280               117.4782               224.2264
 Red. masses --      1.0572                 5.0549                 5.1752
 Frc consts  --      1.6801                 0.0411                 0.1533
 IR Inten    --    296.8771                 2.2422                 1.7824

                      4                      5                      6
                      A                      A                      A
 Frequencies --    344.0261               427.5621               451.2575
 Red. masses --      5.1874                 2.3210                 1.7315
 Frc consts  --      0.3617                 0.2500                 0.2077
 IR Inten    --     25.5037                 8.8043                 5.0964

                      7                      8                      9
                      A                      A                      A
 Frequencies --    490.7238               562.2731               600.6684
 Red. masses --      3.2774                 2.5642                 4.6664
 Frc consts  --      0.4650                 0.4776                 0.9920
 IR Inten    --    134.1936                18.2806                39.7262

                     10                     11                     12
                      A                      A                      A
 Frequencies --    635.9139               694.1784               702.3091
 Red. masses --      1.4005                 4.6081                 4.3300
 Frc consts  --      0.3337                 1.3083                 1.2583
 IR Inten    --     58.2865               422.3169               315.8141

                     13                     14                     15
                      A                      A                      A
 Frequencies --    794.6015               834.1957               902.3202
 Red. masses --      1.7520                 1.9900                 5.4038
 Frc consts  --      0.6517                 0.8159                 2.5922
 IR Inten    --     25.9523                48.3145                56.2306

                     16                     17                     18
                      A                      A                      A
 Frequencies --    921.4581              1018.3438              1034.3595
 Red. masses --      1.5761                 2.7716                 1.3707
 Frc consts  --      0.7885                 1.6934                 0.8640
 IR Inten    --      7.7706              1485.1625                 1.7575

                     19                     20                     21
                      A                      A                      A
 Frequencies --   1068.2185              1085.2513              1171.7723
 Red. masses --      1.3208                 2.2675                 1.5646
 Frc consts  --      0.8880                 1.5735                 1.2658
 IR Inten    --      0.3562                 6.1782               895.8553

                     22                     23                     24
                      A                      A                      A
 Frequencies --   1214.6130              1241.5475              1323.5916
 Red. masses --      1.1102                 1.3826                 4.1127
 Frc consts  --      0.9650                 1.2557                 4.2451
 IR Inten    --    224.0045              2419.0953                41.4456

                     25                     26                     27
                      A                      A                      A
 Frequencies --   1376.9084              1393.3968              1457.6057
 Red. masses --      1.5446                 1.0917                 1.9481
 Frc consts  --      1.7254                 1.2489                 2.4387
 IR Inten    --    553.3138                31.3740                36.0754

                     28                     29                     30
                      A                      A                      A
 Frequencies --   1466.0292              1558.0720              1619.3087
 Red. masses --      1.1713                 2.4564                 3.6307
 Frc consts  --      1.4832                 3.5134                 5.6092
 IR Inten    --    152.9272                89.3491               265.8493

                     31                     32                     33
                      A                      A                      A
 Frequencies --   1649.0796              1754.2300              1792.5193
 Red. masses --      4.0119                 4.4652                 1.2837
 Frc consts  --      6.4281                 8.0959                 2.4302
 IR Inten    --     83.5052               417.0466               119.5909

                     34                     35                     36
                      A                      A                      A
 Frequencies --   2018.5160              3275.6327              3289.5378
 Red. masses --      1.0702                 1.0899                 1.0914
 Frc consts  --      2.5690                 6.8900                 6.9582
 IR Inten    --    129.9390                 5.9654                 3.5639

                     37                     38                     39
                      A                      A                      A
 Frequencies --   3314.2771              3317.6965              4033.0682
 Red. masses --      1.0941                 1.0978                 1.0663
 Frc consts  --      7.0808                 7.1194                10.2190
 IR Inten    --      2.4319                 1.6859                45.7342

 - Thermochemistry -
 -------------------
 Temperature   298.150 Kelvin.  Pressure   1.00000 Atm.
 Atom     1 has atomic number  8 and mass  15.99491

 Molecular mass:   113.04768 amu.
 Principal axes and moments of inertia in atomic units:
                           1         2         3
     Eigenvalues --   428.936481107.075951532.38438
           X            0.99987  -0.01450   0.00648
           Y            0.01453   0.99988  -0.00436
           Z           -0.00641   0.00445   0.99997
 This molecule is an asymmetric top.
 Rotational symmetry number  1.
 Rotational temperatures (Kelvin)      0.20193     0.07824     0.05652
 Rotational constants (GHZ):           4.20748     1.63019     1.17773
    1 imaginary frequencies ignored.
 Zero-point vibrational energy     306105.0 (Joules/Mol)
                                   73.16086 (Kcal/Mol)
 Warning -- explicit consideration of   8 degrees of freedom as
           vibrations may cause significant error
 Vibrational temperatures:    169.02   322.61   494.98   615.17   649.26
          (Kelvin)            706.04   808.98   864.23   914.94   998.77
                             1010.46  1143.25  1200.22  1298.24  1325.77
                             1465.17  1488.21  1536.93  1561.43  1685.92
                             1747.56  1786.31  1904.35  1981.06  2004.78
                             2097.17  2109.29  2241.72  2329.82  2372.65
                             2523.94  2579.03  2904.19  4712.90  4732.91
                             4768.50  4773.42  5802.68

 Zero-point correction=                           0.116589 (Hartree/Particle)
 Thermal correction to Energy=                    0.122975
 Thermal correction to Enthalpy=                  0.123919
 Thermal correction to Gibbs Free Energy=         0.085935
 Sum of electronic and zero-point Energies=           -399.755716
 Sum of electronic and thermal Energies=              -399.749331
 Sum of electronic and thermal Enthalpies=            -399.748386
 Sum of electronic and thermal Free Energies=         -399.786371

                     E (Thermal)             CV                S
                      KCal/Mol        Cal/Mol-Kelvin    Cal/Mol-Kelvin
 Total                   77.168             24.967             79.944
 Electronic               0.000              0.000              0.000
 Translational            0.889              2.981             40.084
 Rotational               0.889              2.981             28.078
 Vibrational             75.391             19.005             11.783
 Vibration     1          0.608              1.935              3.141
 Vibration     2          0.649              1.804              1.925
 Vibration     3          0.723              1.587              1.193
 Vibration     4          0.789              1.410              0.867
 Vibration     5          0.810              1.358              0.792
 Vibration     6          0.847              1.271              0.682
 Vibration     7          0.918              1.113              0.519
 Vibration     8          0.959              1.030              0.449

 Optimization completed.
    -- Stationary point found.
 Normal termination of Gaussian 09 at Sun Aug 29 00:00:11 2021.
