 Gaussian 09, Revision E.01,
 Gaussian 09:  EM64L-G09RevE.01 30-Nov-2015

 ------------------------------------------------------------
 #p gen geom=checkpoint b3lyp iop(5/33=1) nosymm extraoverlay
 ------------------------------------------------------------

 ----------------
 TST_H2O_XYG3_PC2
 ----------------
 Structure from the checkpoint file:  "./tmp/TST_H2O_XYG3_PC2.chk"
 Charge =  0 Multiplicity = 1

                          Input orientation:
 ---------------------------------------------------------------------
 Center     Atomic      Atomic             Coordinates (Angstroms)
 Number     Number       Type             X           Y           Z
 ---------------------------------------------------------------------
      1          8           0        1.335511    1.311833   -0.013939
      2          7           0        0.406240   -0.762930   -0.014670
      3          6           0        0.263418    0.590573   -0.010505
      4          6           0       -1.040238    1.136302   -0.003972
      5          6           0       -0.654610   -1.584824   -0.016122
      6          6           0       -2.120456    0.288993   -0.004891
      7          6           0       -1.940014   -1.104224   -0.011271
      8          1           0        2.235545    0.549092   -0.022311
      9          1           0       -1.147586    2.210292   -0.000940
     10          1           0       -0.434372   -2.643696   -0.023778
     11          1           0       -3.121635    0.699595   -0.001701
     12          1           0       -2.778954   -1.782559   -0.014085
     13          8           0        2.818495   -0.567702   -0.078764
     14          1           0        3.361024   -0.748810    0.692653
     15          1           0        1.623761   -0.988033   -0.006123
 ---------------------------------------------------------------------

 SCF Done:  E(RB3LYP) =  -400.122253815     A.U. after   14 cycles

 Alpha  occ. eigenvalues --  -19.12033 -19.09907 -14.35377 -10.28632 -10.23926
 Alpha  occ. eigenvalues --  -10.21134 -10.19307 -10.19292  -1.06669  -0.97123
 Alpha  occ. eigenvalues --   -0.96135  -0.82855  -0.77303  -0.66905  -0.64275
 Alpha  occ. eigenvalues --   -0.56485  -0.55252  -0.50926  -0.48771  -0.47024
 Alpha  occ. eigenvalues --   -0.45610  -0.44068  -0.40657  -0.40090  -0.36506
 Alpha  occ. eigenvalues --   -0.35702  -0.31780  -0.30351  -0.28233  -0.24635
 Alpha virt. eigenvalues --   -0.05700  -0.01822   0.01015   0.02604   0.03674
 Alpha virt. eigenvalues --    0.05557   0.07206   0.10409   0.11265   0.12145
 Alpha virt. eigenvalues --    0.13876   0.14586   0.15796   0.17473   0.18181

 Mulliken charges:
               1
     1  O   -0.500775
     2  N   -0.371105
     3  C    0.486491
     4  C   -0.112298
     5  C    0.155823
     6  C    0.044498
     7  C   -0.123614
     8  H    0.296189
     9  H    0.055054
    10  H    0.058230
    11  H    0.056480
    12  H    0.046137
    13  O   -0.576530
    14  H    0.201600
    15  H    0.283819
 Sum of Mulliken charges =  -0.00000

 Dipole moment (field-independent basis, Debye):
    X=             -2.9807    Y=             -1.7855    Z=              1.3505  Tot=              3.7278
 Quadrupole moment (field-independent basis, Debye-Ang):
   XX=            -45.6699   YY=            -45.2788   ZZ=            -49.4203
   XY=             -2.1393   XZ=              5.0971   YZ=             -1.1335

 E2(B3LYP) =    -0.2137356537D+01 E(B3LYP) =    -0.40225961035158D+03
 Normal termination of Gaussian 09 at Sun Aug 29 12:52:04 2021.
