 Gaussian 09, Revision E.01,
 Gaussian 09:  EM64L-G09RevE.01 30-Nov-2015

 -------------------
 #p opt freq M06/gen
 -------------------

 -----------------------
 PY_H2O_M06_PC2_OPT_FREQ
 -----------------------
 Symbolic Z-matrix:
 Charge =  0 Multiplicity = 1

 SCF Done:  E(RM06) =  -399.883540832     A.U. after   16 cycles
 SCF Done:  E(RM06) =  -399.883915226     A.U. after   12 cycles
 SCF Done:  E(RM06) =  -399.883931986     A.U. after    8 cycles
 SCF Done:  E(RM06) =  -399.883943172     A.U. after    8 cycles
 SCF Done:  E(RM06) =  -399.883952357     A.U. after    8 cycles
 SCF Done:  E(RM06) =  -399.883960583     A.U. after    8 cycles
 SCF Done:  E(RM06) =  -399.883962054     A.U. after    7 cycles
 SCF Done:  E(RM06) =  -399.883962864     A.U. after    7 cycles
 SCF Done:  E(RM06) =  -399.883963204     A.U. after    6 cycles
 SCF Done:  E(RM06) =  -399.883963523     A.U. after    7 cycles
 SCF Done:  E(RM06) =  -399.883963705     A.U. after    7 cycles
 SCF Done:  E(RM06) =  -399.883963884     A.U. after    7 cycles
 SCF Done:  E(RM06) =  -399.883964147     A.U. after    7 cycles
 SCF Done:  E(RM06) =  -399.883964445     A.U. after    7 cycles
 SCF Done:  E(RM06) =  -399.883964527     A.U. after    7 cycles
 SCF Done:  E(RM06) =  -399.883964553     A.U. after    6 cycles
 Optimization completed.
    -- Stationary point found.
 Normal termination of Gaussian 09 at Fri Aug 27 01:16:54 2021.

 ----------------------------------------------------------------
 #P Geom=AllCheck Guess=TCheck SCRF=Check GenChk RM06/ChkBas Freq
 ----------------------------------------------------------------

 Structure from the checkpoint file:  "PY_H2O_M06_PC2_OPT_FREQ.chk"
 -----------------------
 PY_H2O_M06_PC2_OPT_FREQ
 -----------------------
 Charge =  0 Multiplicity = 1

                         Standard orientation:
 ---------------------------------------------------------------------
 Center     Atomic      Atomic             Coordinates (Angstroms)
 Number     Number       Type             X           Y           Z
 ---------------------------------------------------------------------
      1          8           0        1.246124    1.397100    0.007391
      2          7           0        0.255136   -0.650067    0.013892
      3          6           0        0.209962    0.741304    0.007153
      4          6           0       -1.121920    1.279465   -0.000309
      5          6           0       -0.830410   -1.455051    0.007804
      6          6           0       -2.209207    0.470835   -0.005259
      7          6           0       -2.079954   -0.937224   -0.002060
      8          1           0        2.714804    0.278824   -0.046668
      9          1           0       -1.205354    2.356343   -0.003891
     10          1           0       -0.632650   -2.517856    0.010302
     11          1           0       -3.199246    0.909837   -0.012550
     12          1           0       -2.941308   -1.585830   -0.007643
     13          8           0        3.083544   -0.623121   -0.083998
     14          1           0        3.833346   -0.635776    0.506378
     15          1           0        1.196280   -1.042878    0.025704
 ---------------------------------------------------------------------

 SCF Done:  E(RM06) =  -399.883964553     A.U. after    1 cycles

 The electronic state is 1-A.
 Alpha  occ. eigenvalues --  -19.19242 -19.16789 -14.43800 -10.34378 -10.30237
 Alpha  occ. eigenvalues --  -10.26742 -10.24790 -10.24508  -1.06569  -1.02625
 Alpha  occ. eigenvalues --   -0.97974  -0.83876  -0.77607  -0.67110  -0.65260
 Alpha  occ. eigenvalues --   -0.57737  -0.54370  -0.52310  -0.49772  -0.47800
 Alpha  occ. eigenvalues --   -0.46508  -0.45123  -0.40811  -0.40312  -0.38689
 Alpha  occ. eigenvalues --   -0.37049  -0.32997  -0.32660  -0.28281  -0.24342
 Alpha virt. eigenvalues --   -0.04566   0.00176   0.00531   0.01159   0.02122
 Alpha virt. eigenvalues --    0.03313   0.05020   0.09320   0.11317   0.12439
 Alpha virt. eigenvalues --    0.13853   0.15917   0.16052   0.17371   0.18509

 Mulliken charges:
               1
     1  O   -0.572727
     2  N   -0.229594
     3  C    0.511962
     4  C   -0.130672
     5  C    0.116189
     6  C    0.048960
     7  C   -0.112182
     8  H    0.232108
     9  H    0.054708
    10  H    0.077170
    11  H    0.050666
    12  H    0.035009
    13  O   -0.459000
    14  H    0.220096
    15  H    0.157307
 Sum of Mulliken charges =  -0.00000

 Dipole moment (field-independent basis, Debye):
    X=             -2.1339    Y=             -2.1503    Z=              1.0546  Tot=              3.2077
 Quadrupole moment (field-independent basis, Debye-Ang):
   XX=            -40.2135   YY=            -45.6373   ZZ=            -49.2443
   XY=             -2.1757   XZ=              4.5081   YZ=             -0.8782

  Exact polarizability:  98.746   6.001  83.673   1.027  -0.260  43.611
 Approx polarizability: 141.359  13.574 129.798   1.611  -0.299  62.572

                      1                      2                      3
                      A                      A                      A
 Frequencies --     55.9680               150.4733               173.6838
 Red. masses --      4.2493                 6.2265                 1.5482
 Frc consts  --      0.0078                 0.0831                 0.0275
 IR Inten    --      4.7173                27.5558                70.1053

                      4                      5                      6
                      A                      A                      A
 Frequencies --    179.3853               214.7628               389.3260
 Red. masses --      4.7834                 2.5532                 3.3367
 Frc consts  --      0.0907                 0.0694                 0.2980
 IR Inten    --      7.2105                43.3997                 1.8108

                      7                      8                      9
                      A                      A                      A
 Frequencies --    435.1044               487.1154               508.2483
 Red. masses --      1.1012                 6.6190                 2.3066
 Frc consts  --      0.1228                 0.9254                 0.3511
 IR Inten    --    104.2097                25.5064                24.6776

                     10                     11                     12
                      A                      A                      A
 Frequencies --    554.6337               620.7961               707.5268
 Red. masses --      7.8826                 6.6800                 1.0589
 Frc consts  --      1.4287                 1.5168                 0.3123
 IR Inten    --      8.0099                 0.1879               221.6977

                     13                     14                     15
                      A                      A                      A
 Frequencies --    739.5414               781.8491               843.4203
 Red. masses --      1.9780                 1.6712                 2.5646
 Frc consts  --      0.6374                 0.6019                 1.0749
 IR Inten    --     22.8732                38.7246                16.1468

                     16                     17                     18
                      A                      A                      A
 Frequencies --    846.6423               871.1652               969.3473
 Red. masses --      1.5077                 1.7771                 1.2842
 Frc consts  --      0.6368                 0.7946                 0.7110
 IR Inten    --     27.1331                57.0599                 1.3781

                     19                     20                     21
                      A                      A                      A
 Frequencies --    997.4927              1005.7364              1030.1518
 Red. masses --      5.0904                 1.2983                 2.4187
 Frc consts  --      2.9842                 0.7738                 1.5123
 IR Inten    --     20.3184                 0.3433                 4.9557

                     22                     23                     24
                      A                      A                      A
 Frequencies --   1124.0836              1156.2948              1233.5414
 Red. masses --      1.5297                 1.1131                 1.4237
 Frc consts  --      1.1388                 0.8768                 1.2763
 IR Inten    --      8.0947                14.3577                 4.4481

                     25                     26                     27
                      A                      A                      A
 Frequencies --   1263.9618              1391.8486              1468.4215
 Red. masses --      2.4330                 1.5782                 1.9797
 Frc consts  --      2.2901                 1.8013                 2.5151
 IR Inten    --     20.2491                 3.6497                 8.7979

                     28                     29                     30
                      A                      A                      A
 Frequencies --   1500.4603              1600.4163              1629.4572
 Red. masses --      2.5214                 4.5243                 1.1634
 Frc consts  --      3.3446                 6.8276                 1.8199
 IR Inten    --     13.0216                64.9829               231.3132

                     31                     32                     33
                      A                      A                      A
 Frequencies --   1677.8608              1763.4346              3181.7370
 Red. masses --      4.3112                 5.3218                 1.0889
 Frc consts  --      7.1509                 9.7505                 6.4947
 IR Inten    --     31.8798               668.0165                 9.0451

                     34                     35                     36
                      A                      A                      A
 Frequencies --   3204.7609              3218.4927              3229.0679
 Red. masses --      1.0902                 1.0939                 1.0977
 Frc consts  --      6.5973                 6.6763                 6.7438
 IR Inten    --      1.4530                 2.0143                 1.8794

                     37                     38                     39
                      A                      A                      A
 Frequencies --   3416.2580              3597.2033              3969.3981
 Red. masses --      1.0816                 1.0611                 1.0694
 Frc consts  --      7.4373                 8.0897                 9.9274
 IR Inten    --    321.7411               619.7324               107.0805

 - Thermochemistry -
 -------------------
 Temperature   298.150 Kelvin.  Pressure   1.00000 Atm.
 Atom     1 has atomic number  8 and mass  15.99491

 Molecular mass:   113.04768 amu.
 Principal axes and moments of inertia in atomic units:
                           1         2         3
     Eigenvalues --   447.916351275.601821720.90084
           X            0.99993  -0.01032   0.00532
           Y            0.01034   0.99994  -0.00332
           Z           -0.00529   0.00338   0.99998
 This molecule is an asymmetric top.
 Rotational symmetry number  1.
 Warning -- assumption of classical behavior for rotation
           may cause significant error
 Rotational temperatures (Kelvin)      0.19337     0.06790     0.05033
 Rotational constants (GHZ):           4.02919     1.41482     1.04872
 Zero-point vibrational energy     312160.0 (Joules/Mol)
                                   74.60802 (Kcal/Mol)
 Warning -- explicit consideration of  10 degrees of freedom as
           vibrations may cause significant error
 Vibrational temperatures:     80.53   216.50   249.89   258.10   309.00
          (Kelvin)            560.15   626.02   700.85   731.26   797.99
                              893.19  1017.97  1064.03  1124.91  1213.49
                             1218.13  1253.41  1394.67  1435.17  1447.03
                             1482.16  1617.30  1663.65  1774.79  1818.56
                             2002.56  2112.73  2158.83  2302.64  2344.42
                             2414.06  2537.19  4577.80  4610.93  4630.69
                             4645.90  4915.23  5175.57  5711.07

 Zero-point correction=                           0.118895 (Hartree/Particle)
 Thermal correction to Energy=                    0.127042
 Thermal correction to Enthalpy=                  0.127986
 Thermal correction to Gibbs Free Energy=         0.085946
 Sum of electronic and zero-point Energies=           -399.765069
 Sum of electronic and thermal Energies=              -399.756923
 Sum of electronic and thermal Enthalpies=            -399.755978
 Sum of electronic and thermal Free Energies=         -399.798018

                     E (Thermal)             CV                S
                      KCal/Mol        Cal/Mol-Kelvin    Cal/Mol-Kelvin
 Total                   79.720             29.656             88.480
 Electronic               0.000              0.000              0.000
 Translational            0.889              2.981             40.084
 Rotational               0.889              2.981             28.377
 Vibrational             77.943             23.694             20.019
 Vibration     1          0.596              1.975              4.595
 Vibration     2          0.618              1.902              2.666
 Vibration     3          0.627              1.875              2.395
 Vibration     4          0.629              1.868              2.335
 Vibration     5          0.645              1.818              2.003
 Vibration     6          0.757              1.493              1.003
 Vibration     7          0.796              1.394              0.842
 Vibration     8          0.843              1.279              0.691
 Vibration     9          0.863              1.232              0.638
 Vibration    10          0.910              1.130              0.535

 Normal termination of Gaussian 09 at Fri Aug 27 01:18:14 2021.
