 Gaussian 09, Revision E.01,
 Gaussian 09:  EM64L-G09RevE.01 30-Nov-2015

 --------------------
 #p opt freq M06L/gen
 --------------------

 ------------------------
 PY_H2O_M06L_PC2_OPT_FREQ
 ------------------------
 Symbolic Z-matrix:
 Charge =  0 Multiplicity = 1

 SCF Done:  E(RM06L) =  -400.064250569     A.U. after   18 cycles
 SCF Done:  E(RM06L) =  -400.064472469     A.U. after   13 cycles
 SCF Done:  E(RM06L) =  -400.064490755     A.U. after    9 cycles
 SCF Done:  E(RM06L) =  -400.064501618     A.U. after    9 cycles
 SCF Done:  E(RM06L) =  -400.064505958     A.U. after    8 cycles
 SCF Done:  E(RM06L) =  -400.064510588     A.U. after    9 cycles
 SCF Done:  E(RM06L) =  -400.064511586     A.U. after    8 cycles
 SCF Done:  E(RM06L) =  -400.064513156     A.U. after    8 cycles
 SCF Done:  E(RM06L) =  -400.064514702     A.U. after    8 cycles
 SCF Done:  E(RM06L) =  -400.064515209     A.U. after    8 cycles
 SCF Done:  E(RM06L) =  -400.064515745     A.U. after    8 cycles
 SCF Done:  E(RM06L) =  -400.064516585     A.U. after    9 cycles
 SCF Done:  E(RM06L) =  -400.064516975     A.U. after    8 cycles
 Optimization completed.
    -- Stationary point found.
 Normal termination of Gaussian 09 at Fri Aug 27 00:33:48 2021.

 -----------------------------------------------------------------
 #P Geom=AllCheck Guess=TCheck SCRF=Check GenChk RM06L/ChkBas Freq
 -----------------------------------------------------------------

 Structure from the checkpoint file:  "PY_H2O_M06L_PC2_OPT_FREQ.chk"
 ------------------------
 PY_H2O_M06L_PC2_OPT_FREQ
 ------------------------
 Charge =  0 Multiplicity = 1

                         Standard orientation:
 ---------------------------------------------------------------------
 Center     Atomic      Atomic             Coordinates (Angstroms)
 Number     Number       Type             X           Y           Z
 ---------------------------------------------------------------------
      1          8           0        1.255652    1.401071    0.007448
      2          7           0        0.257043   -0.650623    0.013271
      3          6           0        0.211724    0.747307    0.007027
      4          6           0       -1.119527    1.281716   -0.000197
      5          6           0       -0.826524   -1.457287    0.007781
      6          6           0       -2.210796    0.469272   -0.004926
      7          6           0       -2.080985   -0.936187   -0.001675
      8          1           0        2.697170    0.269530   -0.049172
      9          1           0       -1.208535    2.356135   -0.003832
     10          1           0       -0.625469   -2.517833    0.010119
     11          1           0       -3.199963    0.907079   -0.012085
     12          1           0       -2.939546   -1.585171   -0.007124
     13          8           0        3.078176   -0.628188   -0.091787
     14          1           0        3.766042   -0.644861    0.570310
     15          1           0        1.197033   -1.042508    0.025533
 ---------------------------------------------------------------------

 SCF Done:  E(RM06L) =  -400.064516975     A.U. after    1 cycles

 The electronic state is 1-A.
 Alpha  occ. eigenvalues --  -18.95096 -18.92327 -14.22461 -10.14594 -10.10989
 Alpha  occ. eigenvalues --  -10.07426 -10.05850 -10.05464  -1.00795  -0.97355
 Alpha  occ. eigenvalues --   -0.92676  -0.78816  -0.72669  -0.62169  -0.60144
 Alpha  occ. eigenvalues --   -0.52587  -0.48825  -0.47035  -0.44832  -0.42944
 Alpha  occ. eigenvalues --   -0.41081  -0.39804  -0.35717  -0.35112  -0.33705
 Alpha  occ. eigenvalues --   -0.32054  -0.28765  -0.26915  -0.22820  -0.20521
 Alpha virt. eigenvalues --   -0.06979  -0.01904   0.02386   0.04013   0.04910
 Alpha virt. eigenvalues --    0.06471   0.08416   0.10091   0.11366   0.12896
 Alpha virt. eigenvalues --    0.14563   0.17422   0.17850   0.18391   0.19709

 Mulliken charges:
               1
     1  O   -0.658052
     2  N   -0.271451
     3  C    0.636599
     4  C   -0.081242
     5  C    0.217576
     6  C    0.144881
     7  C   -0.083881
     8  H    0.244702
     9  H   -0.012810
    10  H    0.023926
    11  H   -0.018994
    12  H   -0.033420
    13  O   -0.494202
    14  H    0.237244
    15  H    0.149123
 Sum of Mulliken charges =  -0.00000

 Dipole moment (field-independent basis, Debye):
    X=             -2.1773    Y=             -2.1552    Z=              1.1398  Tot=              3.2687
 Quadrupole moment (field-independent basis, Debye-Ang):
   XX=            -41.3823   YY=            -45.4370   ZZ=            -48.4286
   XY=             -2.1190   XZ=              4.8030   YZ=             -0.9557

  Exact polarizability:  99.867   6.169  84.009   1.059  -0.263  43.048
 Approx polarizability: 177.041  20.695 164.755   1.951  -0.365  66.352

                      1                      2                      3
                      A                      A                      A
 Frequencies --     63.2440               162.0317               182.2521
 Red. masses --      4.7605                 5.2764                 4.8830
 Frc consts  --      0.0112                 0.0816                 0.0956
 IR Inten    --      2.1713                23.1896                 1.9211

                      4                      5                      6
                      A                      A                      A
 Frequencies --    208.4781               246.1751               397.3240
 Red. masses --      4.7053                 1.2139                 3.3294
 Frc consts  --      0.1205                 0.0433                 0.3097
 IR Inten    --      8.3091               103.0017                 2.8316

                      7                      8                      9
                      A                      A                      A
 Frequencies --    420.6965               489.9379               513.6914
 Red. masses --      1.1103                 6.6504                 2.3508
 Frc consts  --      0.1158                 0.9405                 0.3655
 IR Inten    --     97.4116                24.5844                21.4610

                     10                     11                     12
                      A                      A                      A
 Frequencies --    557.9086               627.6848               742.6377
 Red. masses --      7.9412                 6.6773                 1.0585
 Frc consts  --      1.4563                 1.5500                 0.3440
 IR Inten    --      8.4207                 0.3882               241.0337

                     13                     14                     15
                      A                      A                      A
 Frequencies --    745.2587               786.8080               843.0491
 Red. masses --      2.2918                 1.6532                 5.2986
 Frc consts  --      0.7500                 0.6030                 2.2188
 IR Inten    --     11.3981                47.3561                 3.9650

                     16                     17                     18
                      A                      A                      A
 Frequencies --    867.1719               880.3896               971.9283
 Red. masses --      1.3701                 1.3453                 1.2508
 Frc consts  --      0.6071                 0.6143                 0.6961
 IR Inten    --      1.2141                75.3607                 3.2562

                     19                     20                     21
                      A                      A                      A
 Frequencies --   1009.6513              1010.6106              1038.6166
 Red. masses --      1.3286                 4.7107                 2.4753
 Frc consts  --      0.7979                 2.8347                 1.5732
 IR Inten    --      1.3180                21.0205                 2.4616

                     22                     23                     24
                      A                      A                      A
 Frequencies --   1136.0258              1174.2816              1246.4335
 Red. masses --      1.6153                 1.1522                 1.6351
 Frc consts  --      1.2282                 0.9361                 1.4966
 IR Inten    --      6.7512                15.8654                 1.3082

                     25                     26                     27
                      A                      A                      A
 Frequencies --   1274.3900              1409.3796              1482.8811
 Red. masses --      2.0100                 1.5632                 1.9691
 Frc consts  --      1.9233                 1.8295                 2.5511
 IR Inten    --     23.2873                 3.4525                15.7145

                     28                     29                     30
                      A                      A                      A
 Frequencies --   1512.4605              1598.7177              1667.2859
 Red. masses --      2.5050                 4.7982                 2.2279
 Frc consts  --      3.3762                 7.2255                 3.6489
 IR Inten    --     13.2738                27.0350               185.6633

                     31                     32                     33
                      A                      A                      A
 Frequencies --   1684.0982              1755.5420              3195.5490
 Red. masses --      1.5334                 3.6364                 1.0879
 Frc consts  --      2.5623                 6.6030                 6.5455
 IR Inten    --    150.2794               520.0473                12.5264

                     34                     35                     36
                      A                      A                      A
 Frequencies --   3214.3264              3229.9029              3244.0368
 Red. masses --      1.0904                 1.0938                 1.0972
 Frc consts  --      6.6375                 6.7231                 6.8030
 IR Inten    --      3.5909                 5.1859                 4.4223

                     37                     38                     39
                      A                      A                      A
 Frequencies --   3411.3872              3519.8963              3916.0591
 Red. masses --      1.0806                 1.0627                 1.0684
 Frc consts  --      7.4096                 7.7572                 9.6533
 IR Inten    --    218.6282               792.5601                68.1173

 - Thermochemistry -
 -------------------
 Temperature   298.150 Kelvin.  Pressure   1.00000 Atm.
 Atom     1 has atomic number  8 and mass  15.99491

 Molecular mass:   113.04768 amu.
 Principal axes and moments of inertia in atomic units:
                           1         2         3
     Eigenvalues --   450.012991273.254961720.02147
           X            0.99993  -0.01055   0.00589
           Y            0.01058   0.99994  -0.00370
           Z           -0.00585   0.00376   0.99998
 This molecule is an asymmetric top.
 Rotational symmetry number  1.
 Warning -- assumption of classical behavior for rotation
           may cause significant error
 Rotational temperatures (Kelvin)      0.19247     0.06803     0.05036
 Rotational constants (GHZ):           4.01042     1.41742     1.04926
 Zero-point vibrational energy     313650.1 (Joules/Mol)
                                   74.96417 (Kcal/Mol)
 Warning -- explicit consideration of  10 degrees of freedom as
           vibrations may cause significant error
 Vibrational temperatures:     90.99   233.13   262.22   299.95   354.19
          (Kelvin)            571.66   605.29   704.91   739.09   802.70
                              903.10  1068.49  1072.26  1132.04  1212.96
                             1247.67  1266.68  1398.39  1452.66  1454.04
                             1494.34  1634.49  1689.53  1793.34  1833.56
                             2027.78  2133.53  2176.09  2300.20  2398.85
                             2423.04  2525.83  4597.68  4624.69  4647.10
                             4667.44  4908.22  5064.34  5634.33

 Zero-point correction=                           0.119463 (Hartree/Particle)
 Thermal correction to Energy=                    0.127429
 Thermal correction to Enthalpy=                  0.128374
 Thermal correction to Gibbs Free Energy=         0.086858
 Sum of electronic and zero-point Energies=           -399.945054
 Sum of electronic and thermal Energies=              -399.937088
 Sum of electronic and thermal Enthalpies=            -399.936143
 Sum of electronic and thermal Free Energies=         -399.977659

                     E (Thermal)             CV                S
                      KCal/Mol        Cal/Mol-Kelvin    Cal/Mol-Kelvin
 Total                   79.963             29.302             87.377
 Electronic               0.000              0.000              0.000
 Translational            0.889              2.981             40.084
 Rotational               0.889              2.981             28.379
 Vibrational             78.186             23.340             18.914
 Vibration     1          0.597              1.972              4.353
 Vibration     2          0.622              1.889              2.526
 Vibration     3          0.630              1.864              2.305
 Vibration     4          0.642              1.828              2.057
 Vibration     5          0.661              1.769              1.758
 Vibration     6          0.764              1.476              0.973
 Vibration     7          0.783              1.425              0.890
 Vibration     8          0.846              1.272              0.684
 Vibration     9          0.869              1.220              0.625
 Vibration    10          0.913              1.122              0.528

 Normal termination of Gaussian 09 at Fri Aug 27 00:35:03 2021.
