 Gaussian 09, Revision E.01,
 Gaussian 09:  EM64L-G09RevE.01 30-Nov-2015

 ----------------------
 #p opt freq PBEPBE/gen
 ----------------------

 --------------------------
 PY_H2O_PBEPBE_PC2_OPT_FREQ
 --------------------------
 Symbolic Z-matrix:
 Charge =  0 Multiplicity = 1

 SCF Done:  E(RPBE-PBE) =  -399.675149576     A.U. after   17 cycles
 SCF Done:  E(RPBE-PBE) =  -399.676037420     A.U. after   12 cycles
 SCF Done:  E(RPBE-PBE) =  -399.676111688     A.U. after   11 cycles
 SCF Done:  E(RPBE-PBE) =  -399.676213998     A.U. after   11 cycles
 SCF Done:  E(RPBE-PBE) =  -399.676247402     A.U. after   10 cycles
 SCF Done:  E(RPBE-PBE) =  -399.676254197     A.U. after    8 cycles
 SCF Done:  E(RPBE-PBE) =  -399.676257546     A.U. after    8 cycles
 SCF Done:  E(RPBE-PBE) =  -399.676264093     A.U. after    8 cycles
 SCF Done:  E(RPBE-PBE) =  -399.676272065     A.U. after   10 cycles
 SCF Done:  E(RPBE-PBE) =  -399.676276255     A.U. after    9 cycles
 SCF Done:  E(RPBE-PBE) =  -399.676276539     A.U. after    7 cycles
 SCF Done:  E(RPBE-PBE) =  -399.676276686     A.U. after    7 cycles
 Optimization completed.
    -- Stationary point found.
 Normal termination of Gaussian 09 at Fri Aug 27 00:08:48 2021.

 -------------------------------------------------------------------
 #P Geom=AllCheck Guess=TCheck SCRF=Check GenChk RPBEPBE/ChkBas Freq
 -------------------------------------------------------------------

 Structure from the checkpoint file:  "PY_H2O_PBEPBE_PC2_OPT_FREQ.chk"
 --------------------------
 PY_H2O_PBEPBE_PC2_OPT_FREQ
 --------------------------
 Charge =  0 Multiplicity = 1

                         Standard orientation:
 ---------------------------------------------------------------------
 Center     Atomic      Atomic             Coordinates (Angstroms)
 Number     Number       Type             X           Y           Z
 ---------------------------------------------------------------------
      1          8           0        1.287261    1.398946    0.002536
      2          7           0        0.262856   -0.660796    0.008981
      3          6           0        0.223891    0.744106    0.005126
      4          6           0       -1.107777    1.295305    0.002581
      5          6           0       -0.830930   -1.464469    0.005096
      6          6           0       -2.215369    0.484151   -0.000999
      7          6           0       -2.093043   -0.929456   -0.000587
      8          1           0        2.645671    0.272959   -0.049627
      9          1           0       -1.186840    2.380954    0.000768
     10          1           0       -0.635821   -2.536281    0.004864
     11          1           0       -3.210123    0.933520   -0.005157
     12          1           0       -2.964380   -1.579228   -0.005246
     13          8           0        3.052617   -0.637037   -0.091752
     14          1           0        3.711265   -0.665193    0.617326
     15          1           0        1.220590   -1.054267    0.020632
 ---------------------------------------------------------------------

 SCF Done:  E(RPBE-PBE) =  -399.676276686     A.U. after    1 cycles

 The electronic state is 1-A.
 Alpha  occ. eigenvalues --  -18.73846 -18.71878 -14.04435  -9.98665  -9.95199
 Alpha  occ. eigenvalues --   -9.91800  -9.90406  -9.90104  -0.95408  -0.90832
 Alpha  occ. eigenvalues --   -0.88068  -0.75210  -0.69529  -0.59995  -0.58294
 Alpha  occ. eigenvalues --   -0.51368  -0.47507  -0.45893  -0.43609  -0.42023
 Alpha  occ. eigenvalues --   -0.40246  -0.38913  -0.35148  -0.34278  -0.32592
 Alpha  occ. eigenvalues --   -0.31565  -0.28556  -0.25964  -0.22499  -0.20729
 Alpha virt. eigenvalues --   -0.08511  -0.03915  -0.00802   0.00746   0.02163
 Alpha virt. eigenvalues --    0.03892   0.05953   0.07303   0.08103   0.09765
 Alpha virt. eigenvalues --    0.11561   0.12738   0.13891   0.15280   0.15985

 Mulliken charges:
               1
     1  O   -0.501396
     2  N   -0.220480
     3  C    0.401136
     4  C   -0.112915
     5  C    0.141825
     6  C    0.017224
     7  C   -0.124894
     8  H    0.238200
     9  H    0.059219
    10  H    0.071183
    11  H    0.062363
    12  H    0.053030
    13  O   -0.466425
    14  H    0.214973
    15  H    0.166958
 Sum of Mulliken charges =  -0.00000

 Dipole moment (field-independent basis, Debye):
    X=             -2.4475    Y=             -2.1465    Z=              1.2106  Tot=              3.4732
 Quadrupole moment (field-independent basis, Debye-Ang):
   XX=            -42.8224   YY=            -45.8802   ZZ=            -49.7643
   XY=             -2.2004   XZ=              5.0285   YZ=             -1.0033

  Exact polarizability: 106.737   5.623  87.852   1.116  -0.339  45.144
 Approx polarizability: 202.282  23.725 185.571   1.914  -0.473  75.353

                      1                      2                      3
                      A                      A                      A
 Frequencies --     72.8901               156.3979               173.6971
 Red. masses --      4.7491                 5.9265                 5.0379
 Frc consts  --      0.0149                 0.0854                 0.0896
 IR Inten    --      2.8660                24.1722                 1.6756

                      4                      5                      6
                      A                      A                      A
 Frequencies --    204.7388               261.2458               384.9649
 Red. masses --      5.4843                 1.1369                 3.3862
 Frc consts  --      0.1354                 0.0457                 0.2957
 IR Inten    --      5.0517               114.0962                 1.5733

                      7                      8                      9
                      A                      A                      A
 Frequencies --    454.9954               476.6525               496.9542
 Red. masses --      1.1154                 6.1299                 2.3886
 Frc consts  --      0.1361                 0.8206                 0.3476
 IR Inten    --    102.5214                20.3031                23.4959

                     10                     11                     12
                      A                      A                      A
 Frequencies --    540.4744               606.7763               712.6894
 Red. masses --      7.8569                 6.6803                 2.1383
 Frc consts  --      1.3522                 1.4491                 0.6399
 IR Inten    --      8.5918                 0.2548                19.3982

                     13                     14                     15
                      A                      A                      A
 Frequencies --    748.4688               809.9520               819.4635
 Red. masses --      1.7158                 1.4563                 2.2573
 Frc consts  --      0.5663                 0.5629                 0.8931
 IR Inten    --     43.5181               171.9490                78.4316

                     16                     17                     18
                      A                      A                      A
 Frequencies --    830.9176               878.6781               930.2996
 Red. masses --      1.5396                 1.2965                 1.1744
 Frc consts  --      0.6263                 0.5898                 0.5989
 IR Inten    --      7.3146                67.9913                19.3533

                     19                     20                     21
                      A                      A                      A
 Frequencies --    965.7437               975.9556              1011.8622
 Red. masses --      1.2907                 5.2358                 2.3952
 Frc consts  --      0.7093                 2.9383                 1.4449
 IR Inten    --      0.0296                22.9089                 2.6665

                     22                     23                     24
                      A                      A                      A
 Frequencies --   1095.7039              1133.8878              1206.3726
 Red. masses --      1.5759                 1.1337                 1.6107
 Frc consts  --      1.1147                 0.8588                 1.3811
 IR Inten    --      7.0275                12.8210                 0.5146

                     25                     26                     27
                      A                      A                      A
 Frequencies --   1242.2944              1355.6144              1426.2344
 Red. masses --      2.0959                 1.5864                 2.0209
 Frc consts  --      1.9058                 1.7177                 2.4220
 IR Inten    --     23.3571                 4.1294                14.4730

                     28                     29                     30
                      A                      A                      A
 Frequencies --   1462.3091              1540.2034              1593.6937
 Red. masses --      2.6876                 5.5481                 1.6002
 Frc consts  --      3.3860                 7.7544                 2.3946
 IR Inten    --      9.2579                22.4950               268.4772

                     31                     32                     33
                      A                      A                      A
 Frequencies --   1613.1992              1681.1014              3102.7955
 Red. masses --      2.0291                 3.2932                 1.0887
 Frc consts  --      3.1112                 5.4835                 6.1752
 IR Inten    --     54.6903               437.6506                10.8840

                     34                     35                     36
                      A                      A                      A
 Frequencies --   3130.5884              3145.7386              3160.0713
 Red. masses --      1.0904                 1.0929                 1.0961
 Frc consts  --      6.2963                 6.3719                 6.4492
 IR Inten    --      1.8657                 1.6677                 3.5060

                     37                     38                     39
                      A                      A                      A
 Frequencies --   3166.7829              3252.2280              3774.4331
 Red. masses --      1.0787                 1.0711                 1.0666
 Frc consts  --      6.3739                 6.6748                 8.9524
 IR Inten    --     27.5474              1275.6487                51.5391

 - Thermochemistry -
 -------------------
 Temperature   298.150 Kelvin.  Pressure   1.00000 Atm.
 Atom     1 has atomic number  8 and mass  15.99491

 Molecular mass:   113.04768 amu.
 Principal axes and moments of inertia in atomic units:
                           1         2         3
     Eigenvalues --   454.477231270.044171720.91203
           X            0.99992  -0.01106   0.00621
           Y            0.01108   0.99993  -0.00377
           Z           -0.00617   0.00384   0.99997
 This molecule is an asymmetric top.
 Rotational symmetry number  1.
 Warning -- assumption of classical behavior for rotation
           may cause significant error
 Rotational temperatures (Kelvin)      0.19058     0.06820     0.05033
 Rotational constants (GHZ):           3.97103     1.42101     1.04871
 Zero-point vibrational energy     302637.7 (Joules/Mol)
                                   72.33214 (Kcal/Mol)
 Warning -- explicit consideration of  11 degrees of freedom as
           vibrations may cause significant error
 Vibrational temperatures:    104.87   225.02   249.91   294.57   375.87
          (Kelvin)            553.88   654.64   685.80   715.01   777.62
                              873.01  1025.40  1076.88  1165.34  1179.02
                             1195.50  1264.22  1338.49  1389.49  1404.18
                             1455.84  1576.47  1631.41  1735.70  1787.38
                             1950.42  2052.03  2103.93  2216.01  2292.97
                             2321.03  2418.73  4464.23  4504.21  4526.01
                             4546.63  4556.29  4679.22  5430.56

 Zero-point correction=                           0.115269 (Hartree/Particle)
 Thermal correction to Energy=                    0.123310
 Thermal correction to Enthalpy=                  0.124254
 Thermal correction to Gibbs Free Energy=         0.082711
 Sum of electronic and zero-point Energies=           -399.561008
 Sum of electronic and thermal Energies=              -399.552967
 Sum of electronic and thermal Enthalpies=            -399.552023
 Sum of electronic and thermal Free Energies=         -399.593565

                     E (Thermal)             CV                S
                      KCal/Mol        Cal/Mol-Kelvin    Cal/Mol-Kelvin
 Total                   77.378             29.868             87.434
 Electronic               0.000              0.000              0.000
 Translational            0.889              2.981             40.084
 Rotational               0.889              2.981             28.387
 Vibrational             75.601             23.906             18.963
 Vibration     1          0.599              1.967              4.074
 Vibration     2          0.620              1.896              2.593
 Vibration     3          0.627              1.875              2.395
 Vibration     4          0.640              1.833              2.090
 Vibration     5          0.669              1.744              1.653
 Vibration     6          0.754              1.502              1.020
 Vibration     7          0.813              1.350              0.781
 Vibration     8          0.833              1.302              0.719
 Vibration     9          0.852              1.257              0.666
 Vibration    10          0.896              1.161              0.564
 Vibration    11          0.965              1.017              0.438

 Optimization completed.
    -- Stationary point found.
 Normal termination of Gaussian 09 at Fri Aug 27 00:09:47 2021.
