 Gaussian 09, Revision E.01,
 Gaussian 09:  EM64L-G09RevE.01 30-Nov-2015

 -------------------------
 #p opt freq CAM-B3LYP/gen
 -------------------------

 -----------------------------
 PY_H2O_CAM-B3LYP_PC2_OPT_FREQ
 -----------------------------
 Symbolic Z-matrix:
 Charge =  0 Multiplicity = 1

 SCF Done:  E(RCAM-B3LYP) =  -399.960342000     A.U. after   14 cycles
 SCF Done:  E(RCAM-B3LYP) =  -399.960676697     A.U. after   11 cycles
 SCF Done:  E(RCAM-B3LYP) =  -399.960704169     A.U. after    9 cycles
 SCF Done:  E(RCAM-B3LYP) =  -399.960730203     A.U. after   10 cycles
 SCF Done:  E(RCAM-B3LYP) =  -399.960737680     A.U. after    9 cycles
 SCF Done:  E(RCAM-B3LYP) =  -399.960740933     A.U. after    9 cycles
 SCF Done:  E(RCAM-B3LYP) =  -399.960742329     A.U. after    8 cycles
 SCF Done:  E(RCAM-B3LYP) =  -399.960745466     A.U. after    8 cycles
 SCF Done:  E(RCAM-B3LYP) =  -399.960749482     A.U. after    9 cycles
 SCF Done:  E(RCAM-B3LYP) =  -399.960752193     A.U. after    9 cycles
 SCF Done:  E(RCAM-B3LYP) =  -399.960752932     A.U. after    8 cycles
 SCF Done:  E(RCAM-B3LYP) =  -399.960753303     A.U. after    7 cycles
 Optimization completed.
    -- Stationary point found.
 Normal termination of Gaussian 09 at Fri Aug 27 00:53:00 2021.

 ----------------------------------------------------------------------
 #P Geom=AllCheck Guess=TCheck SCRF=Check GenChk RCAM-B3LYP/ChkBas Freq
 ----------------------------------------------------------------------

 Structure from the checkpoint file:  "PY_H2O_CAM-B3LYP_PC2_OPT_FREQ.chk"
 -----------------------------
 PY_H2O_CAM-B3LYP_PC2_OPT_FREQ
 -----------------------------
 Charge =  0 Multiplicity = 1

                         Standard orientation:
 ---------------------------------------------------------------------
 Center     Atomic      Atomic             Coordinates (Angstroms)
 Number     Number       Type             X           Y           Z
 ---------------------------------------------------------------------
      1          8           0        1.261487    1.380092    0.008886
      2          7           0        0.255386   -0.655098    0.014892
      3          6           0        0.215994    0.728438    0.007865
      4          6           0       -1.109585    1.283984   -0.001249
      5          6           0       -0.837597   -1.453058    0.008687
      6          6           0       -2.202083    0.484969   -0.006562
      7          6           0       -2.081676   -0.926599   -0.002206
      8          1           0        2.671768    0.279520   -0.039724
      9          1           0       -1.181567    2.360403   -0.005680
     10          1           0       -0.644120   -2.515141    0.012093
     11          1           0       -3.188055    0.930035   -0.014924
     12          1           0       -2.947695   -1.567567   -0.007857
     13          8           0        3.058104   -0.621029   -0.081840
     14          1           0        3.841604   -0.625112    0.468635
     15          1           0        1.193322   -1.055357    0.027633
 ---------------------------------------------------------------------

 SCF Done:  E(RCAM-B3LYP) =  -399.960753303     A.U. after    1 cycles

 The electronic state is 1-A.
 Alpha  occ. eigenvalues --  -19.18663 -19.16247 -14.44651 -10.35788 -10.31575
 Alpha  occ. eigenvalues --  -10.28082 -10.26107 -10.25872  -1.13201  -1.07928
 Alpha  occ. eigenvalues --   -1.04991  -0.91426  -0.85068  -0.74182  -0.72388
 Alpha  occ. eigenvalues --   -0.64445  -0.60655  -0.58647  -0.56095  -0.54151
 Alpha  occ. eigenvalues --   -0.52695  -0.51139  -0.46706  -0.45936  -0.44232
 Alpha  occ. eigenvalues --   -0.42456  -0.38347  -0.37880  -0.33676  -0.28805
 Alpha virt. eigenvalues --   -0.00894   0.04228   0.04405   0.05962   0.06910
 Alpha virt. eigenvalues --    0.08579   0.10616   0.13659   0.15618   0.16923
 Alpha virt. eigenvalues --    0.17680   0.18758   0.19813   0.21540   0.22453

 Mulliken charges:
               1
     1  O   -0.540003
     2  N   -0.246853
     3  C    0.452641
     4  C   -0.129500
     5  C    0.166173
     6  C    0.032199
     7  C   -0.138127
     8  H    0.243645
     9  H    0.061946
    10  H    0.065457
    11  H    0.063136
    12  H    0.053064
    13  O   -0.467324
    14  H    0.209424
    15  H    0.174122
 Sum of Mulliken charges =  -0.00000

 Dipole moment (field-independent basis, Debye):
    X=             -2.3981    Y=             -2.1908    Z=              1.0185  Tot=              3.4041
 Quadrupole moment (field-independent basis, Debye-Ang):
   XX=            -40.8440   YY=            -46.1405   ZZ=            -50.2251
   XY=             -2.2851   XZ=              4.3430   YZ=             -0.8388

  Exact polarizability:  98.800   5.800  82.599   0.998  -0.271  43.783
 Approx polarizability: 114.066   9.530 103.114   1.312  -0.228  56.188

                      1                      2                      3
                      A                      A                      A
 Frequencies --     67.8499               152.4355               185.0695
 Red. masses --      4.4831                 5.8460                 3.7246
 Frc consts  --      0.0122                 0.0800                 0.0752
 IR Inten    --      3.9317                27.0926                 9.1930

                      4                      5                      6
                      A                      A                      A
 Frequencies --    190.3658               215.8984               401.9860
 Red. masses --      1.7408                 2.4292                 3.3108
 Frc consts  --      0.0372                 0.0667                 0.3152
 IR Inten    --     72.1384                60.6215                 1.6074

                      7                      8                      9
                      A                      A                      A
 Frequencies --    472.3799               497.6262               525.8930
 Red. masses --      1.1483                 5.4011                 2.3431
 Frc consts  --      0.1510                 0.7880                 0.3818
 IR Inten    --    142.4281                13.7642                25.3056

                     10                     11                     12
                      A                      A                      A
 Frequencies --    565.8764               634.9745               751.3675
 Red. masses --      7.8673                 6.7030                 1.8120
 Frc consts  --      1.4843                 1.5923                 0.6027
 IR Inten    --     10.0435                 0.1075                23.9162

                     13                     14                     15
                      A                      A                      A
 Frequencies --    764.0301               795.5528               855.1033
 Red. masses --      1.0967                 1.7042                 5.2251
 Frc consts  --      0.3772                 0.6355                 2.2510
 IR Inten    --    203.0762                48.2834                 4.6490

                     16                     17                     18
                      A                      A                      A
 Frequencies --    871.6523               897.8422               993.9247
 Red. masses --      1.2807                 1.5399                 1.2976
 Frc consts  --      0.5733                 0.7314                 0.7553
 IR Inten    --     11.6156                93.1537                 1.8739

                     19                     20                     21
                      A                      A                      A
 Frequencies --   1018.8163              1034.3890              1039.8425
 Red. masses --      5.4220                 1.3110                 2.3648
 Frc consts  --      3.3159                 0.8264                 1.5065
 IR Inten    --     25.3034                 0.1060                 5.1317

                     22                     23                     24
                      A                      A                      A
 Frequencies --   1142.6422              1184.1812              1258.7575
 Red. masses --      1.5796                 1.1088                 1.4113
 Frc consts  --      1.2151                 0.9161                 1.3175
 IR Inten    --      7.9339                15.5043                 7.1265

                     25                     26                     27
                      A                      A                      A
 Frequencies --   1285.9726              1418.2327              1490.9606
 Red. masses --      2.9191                 1.5575                 2.0063
 Frc consts  --      2.8442                 1.8458                 2.6277
 IR Inten    --     19.7491                 4.9069                19.8529

                     28                     29                     30
                      A                      A                      A
 Frequencies --   1524.9034              1619.5622              1633.5394
 Red. masses --      2.4796                 5.0180                 1.1774
 Frc consts  --      3.3971                 7.7550                 1.8511
 IR Inten    --     12.6171                35.4047               350.2951

                     31                     32                     33
                      A                      A                      A
 Frequencies --   1697.7902              1760.0678              3199.3123
 Red. masses --      3.3664                 4.1524                 1.0900
 Frc consts  --      5.7172                 7.5790                 6.5734
 IR Inten    --     49.7654               597.9504                 7.8066

                     34                     35                     36
                      A                      A                      A
 Frequencies --   3228.5053              3239.5182              3251.3677
 Red. masses --      1.0909                 1.0945                 1.0983
 Frc consts  --      6.6993                 6.7672                 6.8406
 IR Inten    --      0.5091                 0.6718                 1.6466

                     37                     38                     39
                      A                      A                      A
 Frequencies --   3407.5385              3485.1388              3922.7566
 Red. masses --      1.0799                 1.0664                 1.0679
 Frc consts  --      7.3881                 7.6314                 9.6820
 IR Inten    --     87.7010               990.0969                84.7548

 - Thermochemistry -
 -------------------
 Temperature   298.150 Kelvin.  Pressure   1.00000 Atm.
 Atom     1 has atomic number  8 and mass  15.99491

 Molecular mass:   113.04768 amu.
 Principal axes and moments of inertia in atomic units:
                           1         2         3
     Eigenvalues --   444.419681266.235951708.32732
           X            0.99993  -0.01042   0.00505
           Y            0.01044   0.99994  -0.00320
           Z           -0.00502   0.00325   0.99998
 This molecule is an asymmetric top.
 Rotational symmetry number  1.
 Warning -- assumption of classical behavior for rotation
           may cause significant error
 Rotational temperatures (Kelvin)      0.19489     0.06840     0.05070
 Rotational constants (GHZ):           4.06089     1.42528     1.05644
 Zero-point vibrational energy     315118.0 (Joules/Mol)
                                   75.31502 (Kcal/Mol)
 Warning -- explicit consideration of  10 degrees of freedom as
           vibrations may cause significant error
 Vibrational temperatures:     97.62   219.32   266.27   273.89   310.63
          (Kelvin)            578.37   679.65   715.97   756.64   814.17
                              913.59  1081.05  1099.27  1144.62  1230.30
                             1254.11  1291.79  1430.03  1465.85  1488.25
                             1496.10  1644.01  1703.77  1811.07  1850.23
                             2040.52  2145.16  2193.99  2330.19  2350.30
                             2442.74  2532.34  4603.09  4645.09  4660.94
                             4677.99  4902.68  5014.33  5643.96

 Zero-point correction=                           0.120022 (Hartree/Particle)
 Thermal correction to Energy=                    0.127961
 Thermal correction to Enthalpy=                  0.128905
 Thermal correction to Gibbs Free Energy=         0.087394
 Sum of electronic and zero-point Energies=           -399.840731
 Sum of electronic and thermal Energies=              -399.832792
 Sum of electronic and thermal Enthalpies=            -399.831848
 Sum of electronic and thermal Free Energies=         -399.873360

                     E (Thermal)             CV                S
                      KCal/Mol        Cal/Mol-Kelvin    Cal/Mol-Kelvin
 Total                   80.297             28.972             87.369
 Electronic               0.000              0.000              0.000
 Translational            0.889              2.981             40.084
 Rotational               0.889              2.981             28.354
 Vibrational             78.519             23.011             18.931
 Vibration     1          0.598              1.970              4.215
 Vibration     2          0.619              1.900              2.642
 Vibration     3          0.631              1.860              2.277
 Vibration     4          0.634              1.853              2.224
 Vibration     5          0.645              1.817              1.993
 Vibration     6          0.768              1.466              0.955
 Vibration     7          0.829              1.311              0.731
 Vibration     8          0.853              1.255              0.664
 Vibration     9          0.881              1.193              0.596
 Vibration    10          0.922              1.105              0.512

 Normal termination of Gaussian 09 at Fri Aug 27 00:54:21 2021.
