 Gaussian 09, Revision E.01,
 Gaussian 09:  EM64L-G09RevE.01 30-Nov-2015

 ----------------------------------------------------------
 #p opt freq TPSSh/gen SCF(novaracc,noincfock) int=acc2e=12
 ----------------------------------------------------------

 -------------------------
 PY_H2O_TPSSh_PC2_OPT_FREQ
 -------------------------
 Symbolic Z-matrix:
 Charge =  0 Multiplicity = 1

 SCF Done:  E(RTPSSh) =  -400.141830814     A.U. after   13 cycles
 SCF Done:  E(RTPSSh) =  -400.141916964     A.U. after    9 cycles
 SCF Done:  E(RTPSSh) =  -400.141971567     A.U. after    9 cycles
 SCF Done:  E(RTPSSh) =  -400.142014337     A.U. after    9 cycles
 SCF Done:  E(RTPSSh) =  -400.142023596     A.U. after    8 cycles
 SCF Done:  E(RTPSSh) =  -400.142025157     A.U. after    7 cycles
 SCF Done:  E(RTPSSh) =  -400.142027086     A.U. after    8 cycles
 SCF Done:  E(RTPSSh) =  -400.142030035     A.U. after    8 cycles
 SCF Done:  E(RTPSSh) =  -400.142033553     A.U. after    8 cycles
 SCF Done:  E(RTPSSh) =  -400.142034611     A.U. after    8 cycles
 SCF Done:  E(RTPSSh) =  -400.142034816     A.U. after    7 cycles
 Optimization completed.
    -- Stationary point found.
 Normal termination of Gaussian 09 at Thu Sep  2 22:41:37 2021.

 ------------------------------------------------------------------
 #P Geom=AllCheck Guess=TCheck SCRF=Check GenChk RTPSSh/ChkBas Freq
 ------------------------------------------------------------------

 Structure from the checkpoint file:  "PY_H2O_TPSSh_PC2_OPT_FREQ.chk"
 -------------------------
 PY_H2O_TPSSh_PC2_OPT_FREQ
 -------------------------
 Charge =  0 Multiplicity = 1

                         Standard orientation:
 ---------------------------------------------------------------------
 Center     Atomic      Atomic             Coordinates (Angstroms)
 Number     Number       Type             X           Y           Z
 ---------------------------------------------------------------------
      1          8           0        1.275878    1.391818    0.003752
      2          7           0        0.259181   -0.655242    0.010124
      3          6           0        0.218677    0.741147    0.005481
      4          6           0       -1.109644    1.290257    0.001729
      5          6           0       -0.830948   -1.459860    0.005756
      6          6           0       -2.209614    0.481036   -0.001913
      7          6           0       -2.086594   -0.930265   -0.000773
      8          1           0        2.654313    0.270017   -0.050079
      9          1           0       -1.190667    2.367943   -0.000677
     10          1           0       -0.632316   -2.522761    0.006300
     11          1           0       -3.198158    0.925434   -0.006741
     12          1           0       -2.951973   -1.575445   -0.005515
     13          8           0        3.057760   -0.631038   -0.089614
     14          1           0        3.737814   -0.649792    0.590402
     15          1           0        1.206350   -1.048828    0.020656
 ---------------------------------------------------------------------

 SCF Done:  E(RTPSSh) =  -400.142034816     A.U. after    1 cycles

 The electronic state is 1-A.
 Alpha  occ. eigenvalues --  -19.04037 -19.01765 -14.30742 -10.21698 -10.18142
 Alpha  occ. eigenvalues --  -10.14635 -10.13019 -10.12721  -1.01858  -0.97446
 Alpha  occ. eigenvalues --   -0.94073  -0.80738  -0.74680  -0.64375  -0.62422
 Alpha  occ. eigenvalues --   -0.55040  -0.50876  -0.49248  -0.47041  -0.45365
 Alpha  occ. eigenvalues --   -0.43093  -0.42044  -0.37973  -0.37211  -0.35551
 Alpha  occ. eigenvalues --   -0.33819  -0.30411  -0.28829  -0.24988  -0.22092
 Alpha virt. eigenvalues --   -0.06560  -0.01654   0.01065   0.02666   0.03825
 Alpha virt. eigenvalues --    0.05548   0.07615   0.10204   0.10487   0.11904
 Alpha virt. eigenvalues --    0.13734   0.14918   0.16091   0.17691   0.18260

 Mulliken charges:
               1
     1  O   -0.546815
     2  N   -0.275840
     3  C    0.479292
     4  C   -0.118412
     5  C    0.195880
     6  C    0.058901
     7  C   -0.143441
     8  H    0.251759
     9  H    0.042930
    10  H    0.070330
    11  H    0.049252
    12  H    0.034120
    13  O   -0.488496
    14  H    0.220259
    15  H    0.170282
 Sum of Mulliken charges =  -0.00000

 Dipole moment (field-independent basis, Debye):
    X=             -2.5116    Y=             -2.1909    Z=              1.1789  Tot=              3.5352
 Quadrupole moment (field-independent basis, Debye-Ang):
   XX=            -42.1424   YY=            -45.5724   ZZ=            -49.4039
   XY=             -2.2237   XZ=              4.9247   YZ=             -0.9667

  Exact polarizability: 102.343   5.715  85.033   1.113  -0.300  44.029
 Approx polarizability: 167.564  18.352 153.024   1.713  -0.356  67.877

                      1                      2                      3
                      A                      A                      A
 Frequencies --     71.4776               153.4659               181.2455
 Red. masses --      4.6665                 5.8673                 5.0686
 Frc consts  --      0.0140                 0.0814                 0.0981
 IR Inten    --      3.1353                23.8747                 1.6131

                      4                      5                      6
                      A                      A                      A
 Frequencies --    206.3074               251.1318               393.9551
 Red. masses --      5.1949                 1.1548                 3.4000
 Frc consts  --      0.1303                 0.0429                 0.3109
 IR Inten    --      4.4546               118.5385                 1.6870

                      7                      8                      9
                      A                      A                      A
 Frequencies --    460.6649               482.0667               511.6220
 Red. masses --      1.1221                 5.9273                 2.4315
 Frc consts  --      0.1403                 0.8116                 0.3750
 IR Inten    --    111.0121                18.9654                23.0490

                     10                     11                     12
                      A                      A                      A
 Frequencies --    549.3044               617.8963               735.9194
 Red. masses --      7.8447                 6.6880                 2.3805
 Frc consts  --      1.3946                 1.5045                 0.7596
 IR Inten    --      9.1527                 0.1721                13.3912

                     13                     14                     15
                      A                      A                      A
 Frequencies --    776.7227               798.5831               834.5335
 Red. masses --      1.5986                 1.0749                 5.0946
 Frc consts  --      0.5682                 0.4039                 2.0905
 IR Inten    --     49.6434               251.1459                 6.1971

                     16                     17                     18
                      A                      A                      A
 Frequencies --    862.1425               895.4692               965.2159
 Red. masses --      1.4788                 1.2598                 1.2272
 Frc consts  --      0.6476                 0.5952                 0.6736
 IR Inten    --      2.3045                82.8696                 7.2429

                     19                     20                     21
                      A                      A                      A
 Frequencies --   1002.4396              1007.3049              1029.6346
 Red. masses --      5.4661                 1.2890                 2.4623
 Frc consts  --      3.2363                 0.7706                 1.5380
 IR Inten    --     24.1554                 0.0681                 2.3317

                     22                     23                     24
                      A                      A                      A
 Frequencies --   1124.3019              1169.1258              1240.6230
 Red. masses --      1.6517                 1.1517                 1.7088
 Frc consts  --      1.2301                 0.9275                 1.5496
 IR Inten    --      6.2676                15.7959                 0.8208

                     25                     26                     27
                      A                      A                      A
 Frequencies --   1266.5010              1400.8036              1466.9229
 Red. masses --      2.0201                 1.5453                 2.0900
 Frc consts  --      1.9091                 1.7866                 2.6498
 IR Inten    --     24.9435                 5.2370                27.0223

                     28                     29                     30
                      A                      A                      A
 Frequencies --   1499.5021              1578.9107              1641.6499
 Red. masses --      2.4555                 5.0902                 1.7598
 Frc consts  --      3.2530                 7.4765                 2.7943
 IR Inten    --      9.5368                25.6398               282.9575

                     31                     32                     33
                      A                      A                      A
 Frequencies --   1661.0773              1722.8525              3166.7996
 Red. masses --      1.8098                 3.0237                 1.0890
 Frc consts  --      2.9422                 5.2880                 6.4344
 IR Inten    --    100.7155               444.0898                12.0389

                     34                     35                     36
                      A                      A                      A
 Frequencies --   3200.0802              3211.7022              3224.9008
 Red. masses --      1.0900                 1.0932                 1.0971
 Frc consts  --      6.5768                 6.6441                 6.7225
 IR Inten    --      1.7390                 2.9718                 4.4133

                     37                     38                     39
                      A                      A                      A
 Frequencies --   3294.9461              3372.6275              3849.9567
 Red. masses --      1.0792                 1.0687                 1.0670
 Frc consts  --      6.9032                 7.1624                 9.3182
 IR Inten    --     42.2310              1129.3868                56.1881

 - Thermochemistry -
 -------------------
 Temperature   298.150 Kelvin.  Pressure   1.00000 Atm.
 Atom     1 has atomic number  8 and mass  15.99491

 Molecular mass:   113.04768 amu.
 Principal axes and moments of inertia in atomic units:
                           1         2         3
     Eigenvalues --   450.339571268.000921714.99522
           X            0.99992  -0.01082   0.00599
           Y            0.01084   0.99993  -0.00364
           Z           -0.00595   0.00371   0.99998
 This molecule is an asymmetric top.
 Rotational symmetry number  1.
 Warning -- assumption of classical behavior for rotation
           may cause significant error
 Rotational temperatures (Kelvin)      0.19233     0.06831     0.05050
 Rotational constants (GHZ):           4.00751     1.42330     1.05233
 Zero-point vibrational energy     310313.6 (Joules/Mol)
                                   74.16674 (Kcal/Mol)
 Warning -- explicit consideration of  11 degrees of freedom as
           vibrations may cause significant error
 Vibrational temperatures:    102.84   220.80   260.77   296.83   361.32
          (Kelvin)            566.81   662.79   693.59   736.11   790.33
                              889.01  1058.82  1117.53  1148.98  1200.71
                             1240.43  1288.38  1388.73  1442.29  1449.29
                             1481.41  1617.62  1682.11  1784.98  1822.21
                             2015.44  2110.57  2157.45  2271.70  2361.97
                             2389.92  2478.80  4556.31  4604.20  4620.92
                             4639.91  4740.69  4852.45  5539.22

 Zero-point correction=                           0.118192 (Hartree/Particle)
 Thermal correction to Energy=                    0.126137
 Thermal correction to Enthalpy=                  0.127082
 Thermal correction to Gibbs Free Energy=         0.085669
 Sum of electronic and zero-point Energies=           -400.023843
 Sum of electronic and thermal Energies=              -400.015897
 Sum of electronic and thermal Enthalpies=            -400.014953
 Sum of electronic and thermal Free Energies=         -400.056366

                     E (Thermal)             CV                S
                      KCal/Mol        Cal/Mol-Kelvin    Cal/Mol-Kelvin
 Total                   79.152             29.296             87.160
 Electronic               0.000              0.000              0.000
 Translational            0.889              2.981             40.084
 Rotational               0.889              2.981             28.373
 Vibrational             77.375             23.334             18.704
 Vibration     1          0.598              1.968              4.112
 Vibration     2          0.619              1.899              2.629
 Vibration     3          0.630              1.865              2.316
 Vibration     4          0.641              1.831              2.076
 Vibration     5          0.663              1.761              1.723
 Vibration     6          0.761              1.483              0.985
 Vibration     7          0.818              1.337              0.764
 Vibration     8          0.838              1.290              0.705
 Vibration     9          0.867              1.224              0.630
 Vibration    10          0.905              1.141              0.546
 Vibration    11          0.978              0.994              0.420

 Normal termination of Gaussian 09 at Thu Sep  2 22:54:02 2021.
