 Gaussian 09, Revision E.01,
 Gaussian 09:  EM64L-G09RevE.01 30-Nov-2015

 --------------------
 #p opt freq wB97/gen
 --------------------

 ------------------------
 PY_H2O_wB97_PC2_OPT_FREQ
 ------------------------
 Symbolic Z-matrix:
 Charge =  0 Multiplicity = 1

 SCF Done:  E(RwB97) =  -400.055554965     A.U. after   16 cycles
 SCF Done:  E(RwB97) =  -400.055799934     A.U. after   10 cycles
 SCF Done:  E(RwB97) =  -400.055842346     A.U. after   10 cycles
 SCF Done:  E(RwB97) =  -400.055851542     A.U. after    9 cycles
 SCF Done:  E(RwB97) =  -400.055857279     A.U. after    9 cycles
 SCF Done:  E(RwB97) =  -400.055861802     A.U. after    8 cycles
 SCF Done:  E(RwB97) =  -400.055867150     A.U. after   10 cycles
 SCF Done:  E(RwB97) =  -400.055872069     A.U. after   10 cycles
 SCF Done:  E(RwB97) =  -400.055875933     A.U. after   10 cycles
 SCF Done:  E(RwB97) =  -400.055878572     A.U. after    9 cycles
 SCF Done:  E(RwB97) =  -400.055879985     A.U. after    9 cycles
 SCF Done:  E(RwB97) =  -400.055881244     A.U. after    8 cycles
 SCF Done:  E(RwB97) =  -400.055882378     A.U. after    8 cycles
 SCF Done:  E(RwB97) =  -400.055883201     A.U. after    8 cycles
 SCF Done:  E(RwB97) =  -400.055883647     A.U. after    8 cycles
 Optimization completed.
    -- Stationary point found.
 Normal termination of Gaussian 09 at Fri Aug 27 01:09:02 2021.

 -----------------------------------------------------------------
 #P Geom=AllCheck Guess=TCheck SCRF=Check GenChk RwB97/ChkBas Freq
 -----------------------------------------------------------------

 Structure from the checkpoint file:  "PY_H2O_wB97_PC2_OPT_FREQ.chk"
 ------------------------
 PY_H2O_wB97_PC2_OPT_FREQ
 ------------------------
 Charge =  0 Multiplicity = 1

                         Standard orientation:
 ---------------------------------------------------------------------
 Center     Atomic      Atomic             Coordinates (Angstroms)
 Number     Number       Type             X           Y           Z
 ---------------------------------------------------------------------
      1          8           0        1.254922    1.392226    0.010555
      2          7           0        0.258073   -0.653348    0.016648
      3          6           0        0.213569    0.731196    0.008830
      4          6           0       -1.122994    1.286096   -0.002180
      5          6           0       -0.838940   -1.458127    0.009679
      6          6           0       -2.213034    0.482693   -0.008242
      7          6           0       -2.086607   -0.938156   -0.002809
      8          1           0        2.705027    0.278758   -0.039901
      9          1           0       -1.196833    2.365474   -0.007309
     10          1           0       -0.638454   -2.522225    0.014065
     11          1           0       -3.203362    0.925666   -0.018090
     12          1           0       -2.951715   -1.585116   -0.008975
     13          8           0        3.081546   -0.621950   -0.080887
     14          1           0        3.881126   -0.617748    0.444008
     15          1           0        1.193994   -1.055788    0.030651
 ---------------------------------------------------------------------

 SCF Done:  E(RwB97) =  -400.055883647     A.U. after    1 cycles

 The electronic state is 1-A.
 Alpha  occ. eigenvalues --  -18.98558 -18.95891 -14.28927 -10.24465 -10.20167
 Alpha  occ. eigenvalues --  -10.16867 -10.14579 -10.14414  -1.18660  -1.13359
 Alpha  occ. eigenvalues --   -1.10572  -0.97692  -0.91174  -0.79878  -0.77973
 Alpha  occ. eigenvalues --   -0.69708  -0.65873  -0.63706  -0.61204  -0.59158
 Alpha  occ. eigenvalues --   -0.58287  -0.55996  -0.51277  -0.50830  -0.48981
 Alpha  occ. eigenvalues --   -0.47495  -0.43287  -0.42544  -0.38179  -0.32827
 Alpha virt. eigenvalues --    0.03521   0.08777   0.09621   0.11141   0.12052
 Alpha virt. eigenvalues --    0.13571   0.15335   0.18764   0.20589   0.22272
 Alpha virt. eigenvalues --    0.22582   0.24037   0.24851   0.26548   0.27468

 Mulliken charges:
               1
     1  O   -0.578619
     2  N   -0.287313
     3  C    0.502624
     4  C   -0.102566
     5  C    0.189526
     6  C    0.046753
     7  C   -0.125054
     8  H    0.232064
     9  H    0.050203
    10  H    0.049927
    11  H    0.050006
    12  H    0.040812
    13  O   -0.457465
    14  H    0.215495
    15  H    0.173605
 Sum of Mulliken charges =   0.00000

 Dipole moment (field-independent basis, Debye):
    X=             -2.2648    Y=             -2.1800    Z=              0.9705  Tot=              3.2900
 Quadrupole moment (field-independent basis, Debye-Ang):
   XX=            -39.9902   YY=            -45.9661   ZZ=            -50.2362
   XY=             -2.2831   XZ=              4.1926   YZ=             -0.8114

  Exact polarizability:  97.945   6.239  82.165   0.927  -0.246  43.899
 Approx polarizability:  94.793   7.329  85.470   1.085  -0.164  49.145

                      1                      2                      3
                      A                      A                      A
 Frequencies --     60.5249               154.3667               158.7028
 Red. masses --      4.1349                 5.3888                 1.3057
 Frc consts  --      0.0089                 0.0757                 0.0194
 IR Inten    --      5.8658                55.0150                81.1612

                      4                      5                      6
                      A                      A                      A
 Frequencies --    182.8054               217.9380               394.4455
 Red. masses --      5.1623                 3.8591                 3.2834
 Frc consts  --      0.1016                 0.1080                 0.3010
 IR Inten    --      2.9467                22.0935                 1.7302

                      7                      8                      9
                      A                      A                      A
 Frequencies --    453.9350               494.3967               516.2037
 Red. masses --      1.1050                 6.5461                 2.2633
 Frc consts  --      0.1342                 0.9427                 0.3553
 IR Inten    --    129.9878                22.0405                28.1277

                     10                     11                     12
                      A                      A                      A
 Frequencies --    561.2817               629.6781               728.3476
 Red. masses --      7.9056                 6.6543                 1.0619
 Frc consts  --      1.4674                 1.5545                 0.3319
 IR Inten    --      9.2692                 0.2481               182.8097

                     13                     14                     15
                      A                      A                      A
 Frequencies --    747.9775               796.6789               854.2583
 Red. masses --      1.9307                 1.6644                 2.2786
 Frc consts  --      0.6364                 0.6224                 0.9797
 IR Inten    --     31.3023                46.0327                17.8629

                     16                     17                     18
                      A                      A                      A
 Frequencies --    857.2097               882.9792               995.0172
 Red. masses --      1.6777                 1.7748                 1.3076
 Frc consts  --      0.7263                 0.8153                 0.7628
 IR Inten    --     22.4518                70.6013                 1.1660

                     19                     20                     21
                      A                      A                      A
 Frequencies --   1006.9704              1027.6990              1035.1859
 Red. masses --      5.5652                 1.3117                 2.2391
 Frc consts  --      3.3248                 0.8162                 1.4137
 IR Inten    --     23.9551                 0.1764                 5.2719

                     22                     23                     24
                      A                      A                      A
 Frequencies --   1139.9588              1174.2996              1255.1117
 Red. masses --      1.5287                 1.0907                 1.3143
 Frc consts  --      1.1705                 0.8862                 1.2198
 IR Inten    --      7.8811                15.1034                12.2024

                     25                     26                     27
                      A                      A                      A
 Frequencies --   1295.0575              1411.2219              1487.2509
 Red. masses --      3.2097                 1.6343                 1.9881
 Frc consts  --      3.1717                 1.9176                 2.5909
 IR Inten    --     15.5728                 4.6749                14.2079

                     28                     29                     30
                      A                      A                      A
 Frequencies --   1527.4070              1634.6869              1640.6934
 Red. masses --      2.4245                 3.7898                 1.2725
 Frc consts  --      3.3326                 5.9668                 2.0182
 IR Inten    --     13.4810                77.6513               291.4912

                     31                     32                     33
                      A                      A                      A
 Frequencies --   1714.0897              1773.8833              3227.5860
 Red. masses --      3.6810                 4.7911                 1.0899
 Frc consts  --      6.3721                 8.8825                 6.6896
 IR Inten    --     75.0702               649.9590                 7.8592

                     34                     35                     36
                      A                      A                      A
 Frequencies --   3249.0392              3262.6891              3271.9592
 Red. masses --      1.0912                 1.0959                 1.1000
 Frc consts  --      6.7869                 6.8732                 6.9383
 IR Inten    --      0.5401                 1.0883                 1.6565

                     37                     38                     39
                      A                      A                      A
 Frequencies --   3481.9998              3566.8154              3960.6273
 Red. masses --      1.0801                 1.0636                 1.0685
 Frc consts  --      7.7153                 7.9725                 9.8755
 IR Inten    --    158.6698               774.4094                89.9783

 - Thermochemistry -
 -------------------
 Temperature   298.150 Kelvin.  Pressure   1.00000 Atm.
 Atom     1 has atomic number  8 and mass  15.99491

 Molecular mass:   113.04768 amu.
 Principal axes and moments of inertia in atomic units:
                           1         2         3
     Eigenvalues --   448.434011280.077641726.33859
           X            0.99994  -0.01024   0.00483
           Y            0.01025   0.99994  -0.00311
           Z           -0.00480   0.00316   0.99998
 This molecule is an asymmetric top.
 Rotational symmetry number  1.
 Warning -- assumption of classical behavior for rotation
           may cause significant error
 Rotational temperatures (Kelvin)      0.19315     0.06766     0.05017
 Rotational constants (GHZ):           4.02454     1.40987     1.04542
 Zero-point vibrational energy     315999.4 (Joules/Mol)
                                   75.52568 (Kcal/Mol)
 Warning -- explicit consideration of  10 degrees of freedom as
           vibrations may cause significant error
 Vibrational temperatures:     87.08   222.10   228.34   263.02   313.56
          (Kelvin)            567.52   653.11   711.33   742.70   807.56
                              905.97  1047.93  1076.17  1146.24  1229.09
                             1233.33  1270.41  1431.61  1448.80  1478.63
                             1489.40  1640.14  1689.55  1805.82  1863.30
                             2030.43  2139.82  2197.60  2351.95  2360.59
                             2466.19  2552.22  4643.77  4674.64  4694.28
                             4707.61  5009.81  5131.85  5698.45

 Zero-point correction=                           0.120358 (Hartree/Particle)
 Thermal correction to Energy=                    0.128422
 Thermal correction to Enthalpy=                  0.129366
 Thermal correction to Gibbs Free Energy=         0.087487
 Sum of electronic and zero-point Energies=           -399.935526
 Sum of electronic and thermal Energies=              -399.927462
 Sum of electronic and thermal Enthalpies=            -399.926518
 Sum of electronic and thermal Free Energies=         -399.968396

                     E (Thermal)             CV                S
                      KCal/Mol        Cal/Mol-Kelvin    Cal/Mol-Kelvin
 Total                   80.586             29.256             88.141
 Electronic               0.000              0.000              0.000
 Translational            0.889              2.981             40.084
 Rotational               0.889              2.981             28.385
 Vibrational             78.808             23.294             19.673
 Vibration     1          0.597              1.973              4.440
 Vibration     2          0.620              1.898              2.618
 Vibration     3          0.621              1.893              2.565
 Vibration     4          0.630              1.863              2.300
 Vibration     5          0.646              1.814              1.976
 Vibration     6          0.761              1.482              0.983
 Vibration     7          0.812              1.352              0.784
 Vibration     8          0.850              1.262              0.672
 Vibration     9          0.871              1.214              0.619
 Vibration    10          0.917              1.115              0.521

 Normal termination of Gaussian 09 at Fri Aug 27 01:10:25 2021.
