 Gaussian 09, Revision E.01,
 Gaussian 09:  EM64L-G09RevE.01 30-Nov-2015

 -------------------------
 #p opt freq BHandHLYP/gen
 -------------------------

 -----------------------------
 PY_H2O_BHandHLYP_PC2_OPT_FREQ
 -----------------------------
 Symbolic Z-matrix:
 Charge =  0 Multiplicity = 1

 SCF Done:  E(RBHandHLYP) =  -399.900310440     A.U. after   14 cycles
 SCF Done:  E(RBHandHLYP) =  -399.902026814     A.U. after   11 cycles
 SCF Done:  E(RBHandHLYP) =  -399.902068446     A.U. after    9 cycles
 SCF Done:  E(RBHandHLYP) =  -399.902080291     A.U. after    8 cycles
 SCF Done:  E(RBHandHLYP) =  -399.902088067     A.U. after    8 cycles
 SCF Done:  E(RBHandHLYP) =  -399.902097254     A.U. after    8 cycles
 SCF Done:  E(RBHandHLYP) =  -399.902104846     A.U. after    8 cycles
 SCF Done:  E(RBHandHLYP) =  -399.902110659     A.U. after    9 cycles
 SCF Done:  E(RBHandHLYP) =  -399.902115468     A.U. after    9 cycles
 SCF Done:  E(RBHandHLYP) =  -399.902119802     A.U. after    9 cycles
 SCF Done:  E(RBHandHLYP) =  -399.902121625     A.U. after    8 cycles
 SCF Done:  E(RBHandHLYP) =  -399.902122463     A.U. after    7 cycles
 SCF Done:  E(RBHandHLYP) =  -399.902123138     A.U. after    7 cycles
 SCF Done:  E(RBHandHLYP) =  -399.902123719     A.U. after    7 cycles
 SCF Done:  E(RBHandHLYP) =  -399.902124033     A.U. after    7 cycles
 SCF Done:  E(RBHandHLYP) =  -399.902124157     A.U. after    6 cycles
 Optimization completed.
    -- Stationary point found.
 Normal termination of Gaussian 09 at Fri Aug 27 00:46:04 2021.

 ----------------------------------------------------------------------
 #P Geom=AllCheck Guess=TCheck SCRF=Check GenChk RBHandHLYP/ChkBas Freq
 ----------------------------------------------------------------------

 Structure from the checkpoint file:  "PY_H2O_BHandHLYP_PC2_OPT_FREQ.chk"
 -----------------------------
 PY_H2O_BHandHLYP_PC2_OPT_FREQ
 -----------------------------
 Charge =  0 Multiplicity = 1

                         Standard orientation:
 ---------------------------------------------------------------------
 Center     Atomic      Atomic             Coordinates (Angstroms)
 Number     Number       Type             X           Y           Z
 ---------------------------------------------------------------------
      1          8           0        1.241318    1.377329    0.008965
      2          7           0        0.249289   -0.649293    0.014301
      3          6           0        0.207058    0.727340    0.007535
      4          6           0       -1.118236    1.277700   -0.001624
      5          6           0       -0.836545   -1.448736    0.008424
      6          6           0       -2.203224    0.477474   -0.006568
      7          6           0       -2.078326   -0.931480   -0.002077
      8          1           0        2.707970    0.275856   -0.040815
      9          1           0       -1.194318    2.346425   -0.006093
     10          1           0       -0.640231   -2.502750    0.011901
     11          1           0       -3.184273    0.915761   -0.014717
     12          1           0       -2.935846   -1.571587   -0.007357
     13          8           0        3.085878   -0.612343   -0.076057
     14          1           0        3.884525   -0.604176    0.433783
     15          1           0        1.175215   -1.048151    0.025791
 ---------------------------------------------------------------------

 SCF Done:  E(RBHandHLYP) =  -399.902124157     A.U. after    1 cycles

 The electronic state is 1-A.
 Alpha  occ. eigenvalues --  -19.66447 -19.63723 -14.85471 -10.69590 -10.65256
 Alpha  occ. eigenvalues --  -10.61653 -10.59443 -10.59197  -1.18972  -1.13903
 Alpha  occ. eigenvalues --   -1.09816  -0.94860  -0.88056  -0.76073  -0.74226
 Alpha  occ. eigenvalues --   -0.65502  -0.61764  -0.59586  -0.57036  -0.54780
 Alpha  occ. eigenvalues --   -0.52516  -0.51985  -0.47259  -0.46609  -0.44862
 Alpha  occ. eigenvalues --   -0.41882  -0.39114  -0.36909  -0.34036  -0.27494
 Alpha virt. eigenvalues --   -0.00983   0.03827   0.04548   0.05448   0.06365
 Alpha virt. eigenvalues --    0.08021   0.10094   0.13122   0.15177   0.16829
 Alpha virt. eigenvalues --    0.17240   0.18790   0.19321   0.21053   0.22127

 Mulliken charges:
               1
     1  O   -0.596093
     2  N   -0.291373
     3  C    0.526076
     4  C   -0.112919
     5  C    0.227713
     6  C    0.075671
     7  C   -0.136753
     8  H    0.256096
     9  H    0.035927
    10  H    0.048132
    11  H    0.039718
    12  H    0.025524
    13  O   -0.476789
    14  H    0.208005
    15  H    0.171065
 Sum of Mulliken charges =  -0.00000

 Dipole moment (field-independent basis, Debye):
    X=             -2.3616    Y=             -2.2304    Z=              0.9497  Tot=              3.3843
 Quadrupole moment (field-independent basis, Debye-Ang):
   XX=            -39.9094   YY=            -45.8259   ZZ=            -50.0466
   XY=             -2.2339   XZ=              4.1000   YZ=             -0.7718

  Exact polarizability:  94.868   5.763  80.255   0.935  -0.225  42.997
 Approx polarizability: 111.713   9.377 101.657   1.194  -0.192  56.340

                      1                      2                      3
                      A                      A                      A
 Frequencies --     63.7299               141.3592               167.5738
 Red. masses --      4.3725                 5.6119                 1.3106
 Frc consts  --      0.0105                 0.0661                 0.0217
 IR Inten    --      4.4143                26.3630               109.0676

                      4                      5                      6
                      A                      A                      A
 Frequencies --    191.4907               203.9390               411.5544
 Red. masses --      5.2916                 3.4099                 3.2939
 Frc consts  --      0.1143                 0.0836                 0.3287
 IR Inten    --      1.7137                35.3981                 2.1384

                      7                      8                      9
                      A                      A                      A
 Frequencies --    462.6479               505.6880               539.0533
 Red. masses --      1.1270                 5.9106                 2.3441
 Frc consts  --      0.1421                 0.8905                 0.4013
 IR Inten    --    142.8216                17.8085                26.9605

                     10                     11                     12
                      A                      A                      A
 Frequencies --    579.1160               649.5237               726.7855
 Red. masses --      7.9069                 6.6994                 1.0664
 Frc consts  --      1.5624                 1.6652                 0.3319
 IR Inten    --     10.9194                 0.1946               190.7375

                     13                     14                     15
                      A                      A                      A
 Frequencies --    774.2194               817.8385               872.6246
 Red. masses --      1.8744                 1.6445                 4.9014
 Frc consts  --      0.6620                 0.6481                 2.1990
 IR Inten    --     32.6984                40.9758                 6.8457

                     16                     17                     18
                      A                      A                      A
 Frequencies --    880.2606               914.0975              1025.0861
 Red. masses --      1.1781                 1.8626                 1.3031
 Frc consts  --      0.5378                 0.9170                 0.8068
 IR Inten    --     51.7384                59.8117                 0.9440

                     19                     20                     21
                      A                      A                      A
 Frequencies --   1044.2492              1059.1163              1066.9954
 Red. masses --      5.6339                 2.3794                 1.3082
 Frc consts  --      3.6197                 1.5726                 0.8775
 IR Inten    --     26.2686                 4.7736                 0.1701

                     22                     23                     24
                      A                      A                      A
 Frequencies --   1169.6446              1215.6812              1291.0082
 Red. masses --      1.6209                 1.1152                 1.4168
 Frc consts  --      1.3065                 0.9711                 1.3913
 IR Inten    --      7.9724                17.6649                10.3568

                     25                     26                     27
                      A                      A                      A
 Frequencies --   1314.8840              1457.3024              1531.8811
 Red. masses --      2.9519                 1.5474                 1.9899
 Frc consts  --      3.0070                 1.9362                 2.7513
 IR Inten    --     19.6624                 5.9552                22.0693

                     28                     29                     30
                      A                      A                      A
 Frequencies --   1564.9114              1658.7787              1687.3650
 Red. masses --      2.4258                 4.5460                 1.1783
 Frc consts  --      3.5002                 7.3698                 1.9767
 IR Inten    --     16.8435                37.5622               359.7343

                     31                     32                     33
                      A                      A                      A
 Frequencies --   1741.0114              1807.4481              3270.9795
 Red. masses --      3.3703                 4.1631                 1.0900
 Frc consts  --      6.0189                 8.0131                 6.8712
 IR Inten    --     41.9911               663.0011                 8.8291

                     34                     35                     36
                      A                      A                      A
 Frequencies --   3302.4727              3312.8753              3324.9089
 Red. masses --      1.0907                 1.0945                 1.0985
 Frc consts  --      7.0086                 7.0777                 7.1548
 IR Inten    --      0.5560                 1.0158                 2.2661

                     37                     38                     39
                      A                      A                      A
 Frequencies --   3568.5886              3685.2986              4052.1116
 Red. masses --      1.0811                 1.0624                 1.0691
 Frc consts  --      8.1116                 8.5012                10.3425
 IR Inten    --    227.4105               664.0972               100.1475

 - Thermochemistry -
 -------------------
 Temperature   298.150 Kelvin.  Pressure   1.00000 Atm.
 Atom     1 has atomic number  8 and mass  15.99491

 Molecular mass:   113.04768 amu.
 Principal axes and moments of inertia in atomic units:
                           1         2         3
     Eigenvalues --   440.960521274.474011713.42713
           X            0.99994  -0.00989   0.00467
           Y            0.00990   0.99995  -0.00294
           Z           -0.00464   0.00299   0.99998
 This molecule is an asymmetric top.
 Rotational symmetry number  1.
 Warning -- assumption of classical behavior for rotation
           may cause significant error
 Rotational temperatures (Kelvin)      0.19642     0.06796     0.05055
 Rotational constants (GHZ):           4.09275     1.41607     1.05329
 Zero-point vibrational energy     323315.3 (Joules/Mol)
                                   77.27422 (Kcal/Mol)
 Warning -- explicit consideration of  10 degrees of freedom as
           vibrations may cause significant error
 Vibrational temperatures:     91.69   203.38   241.10   275.51   293.42
          (Kelvin)            592.13   665.65   727.57   775.58   833.22
                              934.52  1045.68  1113.93  1176.69  1255.51
                             1266.50  1315.18  1474.87  1502.44  1523.83
                             1535.17  1682.86  1749.09  1857.47  1891.82
                             2096.73  2204.03  2251.56  2386.61  2427.74
                             2504.92  2600.51  4706.20  4751.52  4766.48
                             4783.80  5134.40  5302.32  5830.08

 Zero-point correction=                           0.123144 (Hartree/Particle)
 Thermal correction to Energy=                    0.131090
 Thermal correction to Enthalpy=                  0.132035
 Thermal correction to Gibbs Free Energy=         0.090355
 Sum of electronic and zero-point Energies=           -399.778980
 Sum of electronic and thermal Energies=              -399.771034
 Sum of electronic and thermal Enthalpies=            -399.770089
 Sum of electronic and thermal Free Energies=         -399.811769

                     E (Thermal)             CV                S
                      KCal/Mol        Cal/Mol-Kelvin    Cal/Mol-Kelvin
 Total                   82.261             28.612             87.723
 Electronic               0.000              0.000              0.000
 Translational            0.889              2.981             40.084
 Rotational               0.889              2.981             28.356
 Vibrational             80.483             22.651             19.283
 Vibration     1          0.597              1.972              4.338
 Vibration     2          0.615              1.912              2.785
 Vibration     3          0.624              1.882              2.463
 Vibration     4          0.634              1.852              2.213
 Vibration     5          0.640              1.834              2.097
 Vibration     6          0.776              1.445              0.921
 Vibration     7          0.820              1.333              0.758
 Vibration     8          0.861              1.237              0.644
 Vibration     9          0.894              1.164              0.567
 Vibration    10          0.936              1.076              0.487

 Normal termination of Gaussian 09 at Fri Aug 27 00:47:10 2021.
