 Gaussian 09, Revision E.01,
 Gaussian 09:  EM64L-G09RevE.01 30-Nov-2015

 --------------------
 #p opt freq BLYP/gen
 --------------------

 ------------------------
 PY_H2O_BLYP_PC2_OPT_FREQ
 ------------------------
 Symbolic Z-matrix:
 Charge =  0 Multiplicity = 1

 SCF Done:  E(RB-LYP) =  -400.028389660     A.U. after   17 cycles
 SCF Done:  E(RB-LYP) =  -400.029712791     A.U. after   13 cycles
 SCF Done:  E(RB-LYP) =  -400.029733018     A.U. after    9 cycles
 SCF Done:  E(RB-LYP) =  -400.029737348     A.U. after    8 cycles
 SCF Done:  E(RB-LYP) =  -400.029738825     A.U. after    8 cycles
 SCF Done:  E(RB-LYP) =  -400.029740732     A.U. after    8 cycles
 SCF Done:  E(RB-LYP) =  -400.029742227     A.U. after    8 cycles
 SCF Done:  E(RB-LYP) =  -400.029744067     A.U. after    8 cycles
 SCF Done:  E(RB-LYP) =  -400.029744702     A.U. after    8 cycles
 SCF Done:  E(RB-LYP) =  -400.029745372     A.U. after    8 cycles
 SCF Done:  E(RB-LYP) =  -400.029745677     A.U. after    8 cycles
 Optimization completed.
    -- Stationary point found.
 Normal termination of Gaussian 09 at Fri Aug 27 00:20:35 2021.

 -----------------------------------------------------------------
 #P Geom=AllCheck Guess=TCheck SCRF=Check GenChk RBLYP/ChkBas Freq
 -----------------------------------------------------------------

 Structure from the checkpoint file:  "PY_H2O_BLYP_PC2_OPT_FREQ.chk"
 ------------------------
 PY_H2O_BLYP_PC2_OPT_FREQ
 ------------------------
 Charge =  0 Multiplicity = 1

                         Standard orientation:
 ---------------------------------------------------------------------
 Center     Atomic      Atomic             Coordinates (Angstroms)
 Number     Number       Type             X           Y           Z
 ---------------------------------------------------------------------
      1          8           0        1.275263    1.407820    0.005691
      2          7           0        0.254493   -0.665378    0.012156
      3          6           0        0.212861    0.748902    0.006625
      4          6           0       -1.126341    1.296643    0.000785
      5          6           0       -0.845341   -1.473824    0.007116
      6          6           0       -2.233444    0.481782   -0.003845
      7          6           0       -2.108046   -0.936836   -0.001495
      8          1           0        2.714136    0.275335   -0.047568
      9          1           0       -1.208544    2.379643   -0.002361
     10          1           0       -0.650176   -2.542897    0.008676
     11          1           0       -3.227343    0.927019   -0.010338
     12          1           0       -2.978284   -1.584352   -0.006832
     13          8           0        3.117888   -0.631241   -0.090971
     14          1           0        3.821861   -0.644788    0.575710
     15          1           0        1.203564   -1.064942    0.024750
 ---------------------------------------------------------------------

 SCF Done:  E(RB-LYP) =  -400.029745677     A.U. after    1 cycles

 The electronic state is 1-A.
 Alpha  occ. eigenvalues --  -18.76344 -18.74105 -14.06477 -10.01314  -9.97644
 Alpha  occ. eigenvalues --   -9.94144  -9.92767  -9.92490  -0.94183  -0.90101
 Alpha  occ. eigenvalues --   -0.86973  -0.74304  -0.68697  -0.59231  -0.57547
 Alpha  occ. eigenvalues --   -0.50714  -0.46904  -0.45391  -0.43349  -0.41643
 Alpha  occ. eigenvalues --   -0.39298  -0.38398  -0.34838  -0.33916  -0.32239
 Alpha  occ. eigenvalues --   -0.30822  -0.27831  -0.25481  -0.22044  -0.20133
 Alpha virt. eigenvalues --   -0.08075  -0.03476  -0.00910   0.00471   0.01950
 Alpha virt. eigenvalues --    0.03669   0.05773   0.07431   0.07849   0.09607
 Alpha virt. eigenvalues --    0.11490   0.12664   0.13854   0.15222   0.15943

 Mulliken charges:
               1
     1  O   -0.503356
     2  N   -0.209161
     3  C    0.398129
     4  C   -0.111749
     5  C    0.125871
     6  C    0.007353
     7  C   -0.106959
     8  H    0.235942
     9  H    0.062524
    10  H    0.062712
    11  H    0.061131
    12  H    0.056566
    13  O   -0.450067
    14  H    0.201950
    15  H    0.169114
 Sum of Mulliken charges =  -0.00000

 Dipole moment (field-independent basis, Debye):
    X=             -2.4546    Y=             -2.1535    Z=              1.1484  Tot=              3.4614
 Quadrupole moment (field-independent basis, Debye-Ang):
   XX=            -42.8204   YY=            -46.5612   ZZ=            -50.1497
   XY=             -2.0871   XZ=              4.8975   YZ=             -0.9443

  Exact polarizability: 107.446   5.871  88.704   1.181  -0.350  45.603
 Approx polarizability: 203.787  24.111 187.833   2.158  -0.491  76.743

                      1                      2                      3
                      A                      A                      A
 Frequencies --     67.7401               137.6111               173.5694
 Red. masses --      4.7990                 5.9319                 5.1289
 Frc consts  --      0.0130                 0.0662                 0.0910
 IR Inten    --      2.4569                24.1475                 1.4364

                      4                      5                      6
                      A                      A                      A
 Frequencies --    187.9047               238.4467               385.4956
 Red. masses --      5.3878                 1.1291                 3.3687
 Frc consts  --      0.1121                 0.0378                 0.2949
 IR Inten    --      4.6678               118.4819                 1.7535

                      7                      8                      9
                      A                      A                      A
 Frequencies --    436.3316               473.1760               498.5515
 Red. masses --      1.1104                 6.3222                 2.3930
 Frc consts  --      0.1246                 0.8340                 0.3504
 IR Inten    --    104.6351                19.5481                23.0717

                     10                     11                     12
                      A                      A                      A
 Frequencies --    541.1371               608.6630               711.1682
 Red. masses --      8.0347                 6.7514                 2.2963
 Frc consts  --      1.3862                 1.4737                 0.6843
 IR Inten    --      8.9392                 0.5779                15.3496

                     13                     14                     15
                      A                      A                      A
 Frequencies --    747.8033               752.9663               801.1289
 Red. masses --      1.5770                 1.0977                 5.2383
 Frc consts  --      0.5196                 0.3667                 1.9808
 IR Inten    --     49.3013               231.4135                 4.0739

                     16                     17                     18
                      A                      A                      A
 Frequencies --    831.4131               850.0165               923.7222
 Red. masses --      1.3867                 1.3261                 1.2452
 Frc consts  --      0.5648                 0.5645                 0.6260
 IR Inten    --      1.3030                78.2474                 4.4426

                     19                     20                     21
                      A                      A                      A
 Frequencies --    970.9521               978.9186               998.2900
 Red. masses --      1.2924                 5.1656                 2.7394
 Frc consts  --      0.7179                 2.9165                 1.6085
 IR Inten    --      0.0568                22.9539                 3.0611

                     22                     23                     24
                      A                      A                      A
 Frequencies --   1092.3133              1138.6386              1195.9467
 Red. masses --      1.7257                 1.3216                 2.1116
 Frc consts  --      1.2131                 1.0096                 1.7795
 IR Inten    --      6.9131                19.0379                 1.0753

                     25                     26                     27
                      A                      A                      A
 Frequencies --   1223.5863              1363.8091              1424.5328
 Red. masses --      1.4113                 1.5169                 2.1568
 Frc consts  --      1.2449                 1.6623                 2.5788
 IR Inten    --     23.0323                 3.7519                32.9198

                     28                     29                     30
                      A                      A                      A
 Frequencies --   1452.4232              1520.6789              1587.2292
 Red. masses --      2.3189                 4.8783                 1.8810
 Frc consts  --      2.8821                 6.6465                 2.7920
 IR Inten    --      6.7921                22.8521               242.1090

                     31                     32                     33
                      A                      A                      A
 Frequencies --   1605.7487              1658.7925              3094.5009
 Red. masses --      1.7844                 2.5323                 1.0884
 Frc consts  --      2.7108                 4.1054                 6.1410
 IR Inten    --    163.0534               337.4517                12.3347

                     34                     35                     36
                      A                      A                      A
 Frequencies --   3124.3221              3136.3745              3148.8503
 Red. masses --      1.0897                 1.0922                 1.0958
 Frc consts  --      6.2669                 6.3302                 6.4014
 IR Inten    --      2.1927                 3.1530                 4.4408

                     37                     38                     39
                      A                      A                      A
 Frequencies --   3245.7718              3311.0821              3735.6494
 Red. masses --      1.0773                 1.0686                 1.0673
 Frc consts  --      6.6866                 6.9027                 8.7754
 IR Inten    --     23.3538              1030.5366                50.3667

 - Thermochemistry -
 -------------------
 Temperature   298.150 Kelvin.  Pressure   1.00000 Atm.
 Atom     1 has atomic number  8 and mass  15.99491

 Molecular mass:   113.04768 amu.
 Principal axes and moments of inertia in atomic units:
                           1         2         3
     Eigenvalues --   457.846131304.766521759.35018
           X            0.99993  -0.01038   0.00588
           Y            0.01040   0.99994  -0.00360
           Z           -0.00584   0.00366   0.99998
 This molecule is an asymmetric top.
 Rotational symmetry number  1.
 Warning -- assumption of classical behavior for rotation
           may cause significant error
 Rotational temperatures (Kelvin)      0.18918     0.06638     0.04923
 Rotational constants (GHZ):           3.94181     1.38319     1.02580
 Zero-point vibrational energy     301310.9 (Joules/Mol)
                                   72.01504 (Kcal/Mol)
 Warning -- explicit consideration of  11 degrees of freedom as
           vibrations may cause significant error
 Vibrational temperatures:     97.46   197.99   249.73   270.35   343.07
          (Kelvin)            554.64   627.78   680.79   717.30   778.57
                              875.73  1023.21  1075.92  1083.35  1152.64
                             1196.22  1222.98  1329.03  1396.98  1408.44
                             1436.31  1571.59  1638.24  1720.70  1760.47
                             1962.21  2049.58  2089.71  2187.91  2283.67
                             2310.31  2386.63  4452.29  4495.20  4512.54
                             4530.49  4669.94  4763.90  5374.76

 Zero-point correction=                           0.114763 (Hartree/Particle)
 Thermal correction to Energy=                    0.122957
 Thermal correction to Enthalpy=                  0.123901
 Thermal correction to Gibbs Free Energy=         0.081923
 Sum of electronic and zero-point Energies=           -399.914982
 Sum of electronic and thermal Energies=              -399.906789
 Sum of electronic and thermal Enthalpies=            -399.905845
 Sum of electronic and thermal Free Energies=         -399.947823

                     E (Thermal)             CV                S
                      KCal/Mol        Cal/Mol-Kelvin    Cal/Mol-Kelvin
 Total                   77.156             30.205             88.350
 Electronic               0.000              0.000              0.000
 Translational            0.889              2.981             40.084
 Rotational               0.889              2.981             28.443
 Vibrational             75.379             24.243             19.824
 Vibration     1          0.598              1.970              4.218
 Vibration     2          0.614              1.916              2.837
 Vibration     3          0.627              1.875              2.396
 Vibration     4          0.633              1.856              2.248
 Vibration     5          0.656              1.782              1.814
 Vibration     6          0.754              1.501              1.018
 Vibration     7          0.797              1.391              0.838
 Vibration     8          0.830              1.310              0.729
 Vibration     9          0.854              1.253              0.662
 Vibration    10          0.896              1.159              0.563
 Vibration    11          0.968              1.013              0.435

 Normal termination of Gaussian 09 at Fri Aug 27 00:21:34 2021.
