 Gaussian 09, Revision E.01,
 Gaussian 09:  EM64L-G09RevE.01 30-Nov-2015

 ----------------------------------------------------------------------
 #p opt=(calcfc,qst3,maxcycle=300,cartesian) freq cam-b3lyp/gen int=acc
 2e=12 scf=(novaracc,noincfock)
 ----------------------------------------------------------------------

 -----------------------------
 HY_H2O_CAM-B3LYP_PC2_OPT_FREQ
 -----------------------------
 Symbolic Z-matrix:
 Charge =  0 Multiplicity = 1

 -----------------------------
 PY_H2O_CAM-B3LYP_PC2_OPT_FREQ
 -----------------------------
 Symbolic Z-matrix:
 Charge =  0 Multiplicity = 1

 -----------------
 TST_H2O_CAM-B3LYP
 -----------------
 Symbolic Z-matrix:
 Charge =  0 Multiplicity = 1

 SCF Done:  E(RCAM-B3LYP) =  -399.925281478     A.U. after   13 cycles
 SCF Done:  E(RCAM-B3LYP) =  -399.932043416     A.U. after   12 cycles
 SCF Done:  E(RCAM-B3LYP) =  -399.934789228     A.U. after   12 cycles
 SCF Done:  E(RCAM-B3LYP) =  -399.936900190     A.U. after   11 cycles
 SCF Done:  E(RCAM-B3LYP) =  -399.937039972     A.U. after   11 cycles
 SCF Done:  E(RCAM-B3LYP) =  -399.937280765     A.U. after   10 cycles
 SCF Done:  E(RCAM-B3LYP) =  -399.937370421     A.U. after   10 cycles
 SCF Done:  E(RCAM-B3LYP) =  -399.937374362     A.U. after    9 cycles
 SCF Done:  E(RCAM-B3LYP) =  -399.937374803     A.U. after    8 cycles
 SCF Done:  E(RCAM-B3LYP) =  -399.937375799     A.U. after    7 cycles
 SCF Done:  E(RCAM-B3LYP) =  -399.937376467     A.U. after    8 cycles
 Optimization completed.
    -- Stationary point found.
 Normal termination of Gaussian 09 at Sat Aug 28 15:14:42 2021.

 ----------------------------------------------------------------------
 #P Geom=AllCheck Guess=TCheck SCRF=Check GenChk RCAM-B3LYP/ChkBas Freq
 ----------------------------------------------------------------------

 Structure from the checkpoint file:  "TST_H2O_CAM-B3LYP.chk"
 -----------------------------
 HY_H2O_CAM-B3LYP_PC2_OPT_FREQ
 -----------------------------
 Charge =  0 Multiplicity = 1

                         Standard orientation:
 ---------------------------------------------------------------------
 Center     Atomic      Atomic             Coordinates (Angstroms)
 Number     Number       Type             X           Y           Z
 ---------------------------------------------------------------------
      1          8           0        1.372356    1.318623   -0.007014
      2          7           0        0.312569   -0.678980   -0.005420
      3          6           0        0.260245    0.671681   -0.000840
      4          6           0       -0.999923    1.302994    0.009033
      5          6           0       -0.797754   -1.426971   -0.005251
      6          6           0       -2.127689    0.533530    0.010217
      7          6           0       -2.041284   -0.865725    0.002569
      8          1           0        2.218328    0.505206   -0.021336
      9          1           0       -1.032639    2.381148    0.012743
     10          1           0       -0.647650   -2.497348   -0.013759
     11          1           0       -3.098841    1.009445    0.015983
     12          1           0       -2.923203   -1.485867    0.001226
     13          8           0        2.721793   -0.643618   -0.082388
     14          1           0        3.276287   -0.867668    0.666492
     15          1           0        1.504961   -0.985147   -0.002557
 ---------------------------------------------------------------------

 SCF Done:  E(RCAM-B3LYP) =  -399.937376467     A.U. after    1 cycles

 The electronic state is 1-A.
 Alpha  occ. eigenvalues --  -19.19016 -19.16790 -14.42481 -10.36078 -10.31197
 Alpha  occ. eigenvalues --  -10.28442 -10.26340 -10.26331  -1.15113  -1.04931
 Alpha  occ. eigenvalues --   -1.04515  -0.91171  -0.85383  -0.74610  -0.71813
 Alpha  occ. eigenvalues --   -0.63930  -0.62571  -0.57949  -0.55658  -0.53792
 Alpha  occ. eigenvalues --   -0.53035  -0.50722  -0.47235  -0.46413  -0.43169
 Alpha  occ. eigenvalues --   -0.42077  -0.37645  -0.36583  -0.34449  -0.29865
 Alpha virt. eigenvalues --   -0.00878   0.03139   0.04519   0.06116   0.07083
 Alpha virt. eigenvalues --    0.08894   0.10447   0.14365   0.15753   0.16959
 Alpha virt. eigenvalues --    0.18103   0.18756   0.19822   0.21328   0.22446

 Mulliken charges:
               1
     1  O   -0.493914
     2  N   -0.366130
     3  C    0.479764
     4  C   -0.125384
     5  C    0.158488
     6  C    0.042539
     7  C   -0.137134
     8  H    0.291978
     9  H    0.062688
    10  H    0.063338
    11  H    0.064426
    12  H    0.053606
    13  O   -0.579826
    14  H    0.205754
    15  H    0.279806
 Sum of Mulliken charges =  -0.00000

 Dipole moment (field-independent basis, Debye):
    X=             -3.1523    Y=             -1.6278    Z=              1.3639  Tot=              3.8009
 Quadrupole moment (field-independent basis, Debye-Ang):
   XX=            -45.4422   YY=            -45.2991   ZZ=            -49.5948
   XY=             -2.5165   XZ=              4.9396   YZ=             -1.3380

  Exact polarizability: 102.163   2.191  82.742   1.049  -0.277  43.689
 Approx polarizability: 117.034   5.785 105.654   1.016  -0.369  56.880

 ******    1 imaginary frequencies (negative Signs) ******

                      1                      2                      3
                      A                      A                      A
 Frequencies --  -1533.9708               113.7552               215.8373
 Red. masses --      1.0579                 5.0766                 5.1336
 Frc consts  --      1.4667                 0.0387                 0.1409
 IR Inten    --    268.2669                 2.8093                 1.8024

                      4                      5                      6
                      A                      A                      A
 Frequencies --    336.1743               417.7412               447.9404
 Red. masses --      5.2896                 2.8009                 2.0430
 Frc consts  --      0.3522                 0.2880                 0.2415
 IR Inten    --     13.1212                 8.7282                22.8628

                      7                      8                      9
                      A                      A                      A
 Frequencies --    493.2537               548.3913               586.4715
 Red. masses --      2.1240                 2.5008                 4.8297
 Frc consts  --      0.3045                 0.4431                 0.9787
 IR Inten    --     16.3746                15.4713                28.6308

                     10                     11                     12
                      A                      A                      A
 Frequencies --    619.7256               675.4739               710.0098
 Red. masses --      1.3753                 4.4486                 6.6659
 Frc consts  --      0.3112                 1.1959                 1.9799
 IR Inten    --     57.5493                15.4929               290.4435

                     13                     14                     15
                      A                      A                      A
 Frequencies --    769.9998               811.0328               883.1893
 Red. masses --      1.7375                 2.0290                 5.5099
 Frc consts  --      0.6069                 0.7863                 2.5322
 IR Inten    --     26.6015                44.5232                29.3969

                     16                     17                     18
                      A                      A                      A
 Frequencies --    894.7165              1000.8099              1011.7969
 Red. masses --      1.5708                 1.3752                 3.2792
 Frc consts  --      0.7409                 0.8115                 1.9779
 IR Inten    --      6.5944                 1.9093               907.8191

                     19                     20                     21
                      A                      A                      A
 Frequencies --   1035.2273              1063.8925              1154.3043
 Red. masses --      1.3226                 2.2364                 1.4519
 Frc consts  --      0.8351                 1.4914                 1.1398
 IR Inten    --      0.2946                 6.5284               277.2888

                     22                     23                     24
                      A                      A                      A
 Frequencies --   1185.8088              1249.9158              1297.1877
 Red. masses --      1.1080                 1.2434                 3.6103
 Frc consts  --      0.9179                 1.1445                 3.5793
 IR Inten    --     65.7849              3803.8319               134.4750

                     25                     26                     27
                      A                      A                      A
 Frequencies --   1341.0395              1362.1282              1420.1112
 Red. masses --      1.5412                 1.1184                 2.0370
 Frc consts  --      1.6330                 1.2226                 2.4205
 IR Inten    --    798.9398               101.4033                36.8841

                     28                     29                     30
                      A                      A                      A
 Frequencies --   1430.7852              1517.1882              1577.8794
 Red. masses --      1.1503                 2.5263                 3.4279
 Frc consts  --      1.3874                 3.4262                 5.0283
 IR Inten    --    122.9950                74.6499               215.6458

                     31                     32                     33
                      A                      A                      A
 Frequencies --   1609.6975              1713.2863              1725.2322
 Red. masses --      3.8160                 3.0497                 1.5862
 Frc consts  --      5.8257                 5.2744                 2.7816
 IR Inten    --     68.3292               371.7780               114.2409

                     34                     35                     36
                      A                      A                      A
 Frequencies --   1957.9071              3203.0505              3213.1056
 Red. masses --      1.0660                 1.0897                 1.0916
 Frc consts  --      2.4077                 6.5871                 6.6398
 IR Inten    --     56.4003                 5.2175                 3.8323

                     37                     38                     39
                      A                      A                      A
 Frequencies --   3240.0851              3243.6731              3901.5679
 Red. masses --      1.0939                 1.0977                 1.0661
 Frc consts  --      6.7662                 6.8044                 9.5612
 IR Inten    --      1.9009                 1.4664                44.8376

 - Thermochemistry -
 -------------------
 Temperature   298.150 Kelvin.  Pressure   1.00000 Atm.
 Atom     1 has atomic number  8 and mass  15.99491

 Molecular mass:   113.04768 amu.
 Principal axes and moments of inertia in atomic units:
                           1         2         3
     Eigenvalues --   432.960611118.453681547.54660
           X            0.99987  -0.01452   0.00662
           Y            0.01455   0.99988  -0.00443
           Z           -0.00656   0.00453   0.99997
 This molecule is an asymmetric top.
 Rotational symmetry number  1.
 Rotational temperatures (Kelvin)      0.20005     0.07744     0.05597
 Rotational constants (GHZ):           4.16837     1.61360     1.16620
    1 imaginary frequencies ignored.
 Zero-point vibrational energy     298943.2 (Joules/Mol)
                                   71.44913 (Kcal/Mol)
 Warning -- explicit consideration of   9 degrees of freedom as
           vibrations may cause significant error
 Vibrational temperatures:    163.67   310.54   483.68   601.04   644.49
          (Kelvin)            709.68   789.01   843.80   891.65   971.86
                             1021.54  1107.86  1166.89  1270.71  1287.30
                             1439.94  1455.75  1489.46  1530.70  1660.78
                             1706.11  1798.35  1866.36  1929.45  1959.80
                             2043.22  2058.58  2182.89  2270.21  2315.99
                             2465.03  2482.22  2816.99  4608.47  4622.94
                             4661.75  4666.92  5613.48

 Zero-point correction=                           0.113861 (Hartree/Particle)
 Thermal correction to Energy=                    0.120361
 Thermal correction to Enthalpy=                  0.121305
 Thermal correction to Gibbs Free Energy=         0.083108
 Sum of electronic and zero-point Energies=           -399.823515
 Sum of electronic and thermal Energies=              -399.817016
 Sum of electronic and thermal Enthalpies=            -399.816072
 Sum of electronic and thermal Free Energies=         -399.854269

                     E (Thermal)             CV                S
                      KCal/Mol        Cal/Mol-Kelvin    Cal/Mol-Kelvin
 Total                   75.528             25.501             80.393
 Electronic               0.000              0.000              0.000
 Translational            0.889              2.981             40.084
 Rotational               0.889              2.981             28.107
 Vibrational             73.750             19.539             12.202
 Vibration     1          0.607              1.938              3.204
 Vibration     2          0.645              1.817              1.994
 Vibration     3          0.717              1.603              1.230
 Vibration     4          0.781              1.432              0.900
 Vibration     5          0.807              1.365              0.802
 Vibration     6          0.849              1.265              0.675
 Vibration     7          0.904              1.143              0.548
 Vibration     8          0.944              1.061              0.474
 Vibration     9          0.980              0.990              0.417

 Optimization completed.
    -- Stationary point found.
 Normal termination of Gaussian 09 at Sat Aug 28 15:16:18 2021.
