 Gaussian 09, Revision E.01,
 Gaussian 09:  EM64L-G09RevE.01 30-Nov-2015

 --------------------
 #p opt freq BLYP/gen
 --------------------

 --------------------
 PY_BLYP_PC2_OPT_FREQ
 --------------------
 Symbolic Z-matrix:
 Charge =  0 Multiplicity = 1

 SCF Done:  E(RB-LYP) =  -323.558718917     A.U. after   17 cycles
 SCF Done:  E(RB-LYP) =  -323.561094648     A.U. after   13 cycles
 SCF Done:  E(RB-LYP) =  -323.561125177     A.U. after    9 cycles
 SCF Done:  E(RB-LYP) =  -323.561131347     A.U. after    9 cycles
 Optimization completed.
    -- Stationary point found.
 Normal termination of Gaussian 09 at Fri Aug 27 00:02:53 2021.

 -----------------------------------------------------------------
 #P Geom=AllCheck Guess=TCheck SCRF=Check GenChk RBLYP/ChkBas Freq
 -----------------------------------------------------------------

 Structure from the checkpoint file:  "PY_BLYP_PC2_OPT_FREQ.chk"
 --------------------
 PY_BLYP_PC2_OPT_FREQ
 --------------------
 Charge =  0 Multiplicity = 1

                         Standard orientation:
 ---------------------------------------------------------------------
 Center     Atomic      Atomic             Coordinates (Angstroms)
 Number     Number       Type             X           Y           Z
 ---------------------------------------------------------------------
      1          8           0       -0.141464    2.301143   -0.000000
      2          7           0       -1.149132    0.226657   -0.000000
      3          6           0       -0.000000    1.074693   -0.000000
      4          6           0        1.249632    0.329934    0.000000
      5          6           0       -1.124622   -1.142408   -0.000000
      6          6           0        1.274179   -1.041934    0.000000
      7          6           0        0.070797   -1.810732    0.000000
      8          1           0       -2.037029    0.723132   -0.000000
      9          1           0        2.160720    0.921400    0.000000
     10          1           0       -2.090206   -1.641019   -0.000000
     11          1           0        2.231609   -1.561343    0.000000
     12          1           0        0.090628   -2.895227    0.000000
 ---------------------------------------------------------------------

 SCF Done:  E(RB-LYP) =  -323.561131347     A.U. after    1 cycles

 The electronic state is 1-A'.
 Alpha  occ. eigenvalues --  -18.73201 -14.06816 -10.00787  -9.97689  -9.93921
 Alpha  occ. eigenvalues --   -9.92640  -9.92284  -0.93666  -0.86872  -0.74178
 Alpha  occ. eigenvalues --   -0.68509  -0.59061  -0.57403  -0.50759  -0.45387
 Alpha  occ. eigenvalues --   -0.43727  -0.41424  -0.39015  -0.37545  -0.34374
 Alpha  occ. eigenvalues --   -0.33448  -0.30551  -0.27703  -0.21047  -0.19759
 Alpha virt. eigenvalues --   -0.07961  -0.02987  -0.01587   0.01094   0.02474
 Alpha virt. eigenvalues --    0.04968   0.06020   0.07657   0.10431   0.12196
 Alpha virt. eigenvalues --    0.12810   0.13387   0.14889   0.16661   0.16754

 Mulliken charges:
               1
     1  O   -0.445071
     2  N   -0.226382
     3  C    0.368174
     4  C   -0.119963
     5  C    0.139805
     6  C    0.007990
     7  C   -0.114883
     8  H    0.152115
     9  H    0.061946
    10  H    0.059751
    11  H    0.060245
    12  H    0.056274
 Sum of Mulliken charges =  -0.00000

 Dipole moment (field-independent basis, Debye):
    X=             -1.1648    Y=             -4.1436    Z=              0.0000  Tot=              4.3043
 Quadrupole moment (field-independent basis, Debye-Ang):
   XX=            -32.2820   YY=            -48.3570   ZZ=            -43.3906
   XY=              0.2780   XZ=             -0.0000   YZ=              0.0000

  Exact polarizability:  77.148   0.117  94.008  -0.000   0.000  38.834
 Approx polarizability: 154.900   2.252 208.412   0.000  -0.000  65.751

                      1                      2                      3
                     A"                     A"                     A'
 Frequencies --    162.4560               378.8851               443.3647
 Red. masses --      5.8159                 3.3241                 6.1404
 Frc consts  --      0.0904                 0.2811                 0.7112
 IR Inten    --      2.7851                 1.4700                 5.5726

                      4                      5                      6
                     A"                     A'                     A'
 Frequencies --    470.9927               532.2268               600.0351
 Red. masses --      2.0450                 8.0176                 6.8126
 Frc consts  --      0.2673                 1.3381                 1.4452
 IR Inten    --     36.4593                 5.4946                 1.5857

                      7                      8                      9
                     A"                     A"                     A"
 Frequencies --    679.2651               710.1273               744.8204
 Red. masses --      1.3430                 1.9399                 1.7232
 Frc consts  --      0.3651                 0.5764                 0.5632
 IR Inten    --     39.7195                 1.7133                65.8404

                     10                     11                     12
                     A'                     A"                     A"
 Frequencies --    780.8999               828.0595               908.1395
 Red. masses --      5.2344                 1.6139                 1.2944
 Frc consts  --      1.8807                 0.6520                 0.6290
 IR Inten    --     10.3422                13.3108                 0.0657

                     13                     14                     15
                     A"                     A'                     A'
 Frequencies --    970.0704               973.7633               989.3138
 Red. masses --      1.2899                 4.3501                 3.3469
 Frc consts  --      0.7152                 2.4303                 1.9300
 IR Inten    --      0.0497                11.7322                 5.2308

                     16                     17                     18
                     A'                     A'                     A'
 Frequencies --   1075.5513              1123.6411              1184.7198
 Red. masses --      1.7911                 1.6452                 1.5597
 Frc consts  --      1.2208                 1.2238                 1.2898
 IR Inten    --     17.5353                22.7201                 0.2478

                     19                     20                     21
                     A'                     A'                     A'
 Frequencies --   1198.3737              1350.2240              1406.4192
 Red. masses --      1.2397                 1.4553                 2.0949
 Frc consts  --      1.0489                 1.5632                 2.4414
 IR Inten    --     24.2098                 2.9339                 6.5400

                     22                     23                     24
                     A'                     A'                     A'
 Frequencies --   1444.1388              1518.4650              1595.0832
 Red. masses --      2.1133                 4.8986                 4.1055
 Frc consts  --      2.5967                 6.6547                 6.1544
 IR Inten    --      0.8479                36.5799                44.3786

                     25                     26                     27
                     A'                     A'                     A'
 Frequencies --   1667.0127              3092.2579              3122.8606
 Red. masses --      7.3298                 1.0884                 1.0897
 Frc consts  --     12.0010                 6.1316                 6.2615
 IR Inten    --    552.8183                12.4020                 3.0048

                     28                     29                     30
                     A'                     A'                     A'
 Frequencies --   3134.6886              3149.5589              3480.5977
 Red. masses --      1.0922                 1.0955                 1.0775
 Frc consts  --      6.3234                 6.4028                 7.6911
 IR Inten    --      3.0872                 4.2860                44.5519

 - Thermochemistry -
 -------------------
 Temperature   298.150 Kelvin.  Pressure   1.00000 Atm.
 Atom     1 has atomic number  8 and mass  15.99491

 Molecular mass:    95.03711 amu.
 Principal axes and moments of inertia in atomic units:
                           1         2         3
     Eigenvalues --   322.22712 656.24291 978.47003
           X           -0.06148   0.99811   0.00000
           Y            0.99811   0.06148   0.00000
           Z            0.00000   0.00000   1.00000
 This molecule is an asymmetric top.
 Rotational symmetry number  1.
 Rotational temperatures (Kelvin)      0.26880     0.13198     0.08852
 Rotational constants (GHZ):           5.60084     2.75011     1.84445
 Zero-point vibrational energy     237554.5 (Joules/Mol)
                                   56.77689 (Kcal/Mol)
 Warning -- explicit consideration of   6 degrees of freedom as
           vibrations may cause significant error
 Vibrational temperatures:    233.74   545.13   637.90   677.65   765.75
          (Kelvin)            863.32   977.31  1021.71  1071.63  1123.54
                             1191.39  1306.61  1395.71  1401.03  1423.40
                             1547.48  1616.67  1704.55  1724.19  1942.67
                             2023.52  2077.79  2184.73  2294.97  2398.46
                             4449.06  4493.09  4510.11  4531.51  5007.80

 Zero-point correction=                           0.090480 (Hartree/Particle)
 Thermal correction to Energy=                    0.095913
 Thermal correction to Enthalpy=                  0.096857
 Thermal correction to Gibbs Free Energy=         0.061428
 Sum of electronic and zero-point Energies=           -323.470652
 Sum of electronic and thermal Energies=              -323.465218
 Sum of electronic and thermal Enthalpies=            -323.464274
 Sum of electronic and thermal Free Energies=         -323.499703

                     E (Thermal)             CV                S
                      KCal/Mol        Cal/Mol-Kelvin    Cal/Mol-Kelvin
 Total                   60.186             21.144             74.567
 Electronic               0.000              0.000              0.000
 Translational            0.889              2.981             39.566
 Rotational               0.889              2.981             26.828
 Vibrational             58.409             15.182              8.172
 Vibration     1          0.623              1.888              2.521
 Vibration     2          0.749              1.515              1.044
 Vibration     3          0.803              1.376              0.816
 Vibration     4          0.828              1.314              0.735
 Vibration     5          0.887              1.179              0.582
 Vibration     6          0.958              1.032              0.450

 Optimization completed.
    -- Stationary point found.
 Normal termination of Gaussian 09 at Fri Aug 27 00:03:30 2021.
