 Gaussian 09, Revision E.01,
 Gaussian 09:  EM64L-G09RevE.01 30-Nov-2015

 -----------------------------------------------
 #p opt=(calcfc,qst3,MaxCycle=200) freq BLYP/gen
 -----------------------------------------------

 --------------------
 HY_BLYP_PC2_OPT_FREQ
 --------------------
 Symbolic Z-matrix:
 Charge =  0 Multiplicity = 1

 --------------------
 PY_BLYP_PC2_OPT_FREQ
 --------------------
 Symbolic Z-matrix:
 Charge =  0 Multiplicity = 1

 ------------
 TST_GAS_BLYP
 ------------
 Symbolic Z-matrix:
 Charge =  0 Multiplicity = 1

 SCF Done:  E(RB-LYP) =  -323.491483641     A.U. after   17 cycles
 SCF Done:  E(RB-LYP) =  -323.497305133     A.U. after   14 cycles
 SCF Done:  E(RB-LYP) =  -323.507479008     A.U. after   13 cycles
 SCF Done:  E(RB-LYP) =  -323.505477814     A.U. after   14 cycles
 SCF Done:  E(RB-LYP) =  -323.511464555     A.U. after   14 cycles
 SCF Done:  E(RB-LYP) =  -323.506497752     A.U. after   13 cycles
 SCF Done:  E(RB-LYP) =  -323.505888577     A.U. after   14 cycles
 SCF Done:  E(RB-LYP) =  -323.505983670     A.U. after   13 cycles
 SCF Done:  E(RB-LYP) =  -323.505187537     A.U. after   12 cycles
 SCF Done:  E(RB-LYP) =  -323.505923679     A.U. after   13 cycles
 SCF Done:  E(RB-LYP) =  -323.505946318     A.U. after   12 cycles
 SCF Done:  E(RB-LYP) =  -323.506010641     A.U. after   12 cycles
 SCF Done:  E(RB-LYP) =  -323.506012052     A.U. after    8 cycles
 SCF Done:  E(RB-LYP) =  -323.506012234     A.U. after    8 cycles
 Optimization completed.
    -- Stationary point found.
 Normal termination of Gaussian 09 at Sat Aug 28 00:55:39 2021.

 -----------------------------------------------------------------
 #P Geom=AllCheck Guess=TCheck SCRF=Check GenChk RBLYP/ChkBas Freq
 -----------------------------------------------------------------

 Structure from the checkpoint file:  "TST_GAS_BLYP.chk"
 --------------------
 HY_BLYP_PC2_OPT_FREQ
 --------------------
 Charge =  0 Multiplicity = 1

                         Standard orientation:
 ---------------------------------------------------------------------
 Center     Atomic      Atomic             Coordinates (Angstroms)
 Number     Number       Type             X           Y           Z
 ---------------------------------------------------------------------
      1          8           0       -2.251800    0.039032    0.000022
      2          7           0       -0.424137   -1.057781   -0.000036
      3          6           0       -0.961504    0.206189    0.000002
      4          6           0       -0.113219    1.337990   -0.000014
      5          6           0        0.901122   -1.293425   -0.000002
      6          6           0        1.257400    1.095093    0.000002
      7          6           0        1.784083   -0.216552    0.000018
      8          1           0       -1.724563   -1.244433    0.000034
      9          1           0       -0.527206    2.341232   -0.000041
     10          1           0        1.227592   -2.330610    0.000001
     11          1           0        1.944565    1.939632   -0.000006
     12          1           0        2.855672   -0.389389    0.000045
 ---------------------------------------------------------------------

 SCF Done:  E(RB-LYP) =  -323.506012234     A.U. after    1 cycles

 The electronic state is 1-A.
 Alpha  occ. eigenvalues --  -18.76078 -14.04237 -10.00791  -9.97327  -9.94501
 Alpha  occ. eigenvalues --   -9.93042  -9.92803  -0.96039  -0.84993  -0.73747
 Alpha  occ. eigenvalues --   -0.68539  -0.59905  -0.56116  -0.48950  -0.45632
 Alpha  occ. eigenvalues --   -0.42806  -0.39887  -0.39408  -0.37715  -0.34997
 Alpha  occ. eigenvalues --   -0.30741  -0.30419  -0.27375  -0.25229  -0.20154
 Alpha virt. eigenvalues --   -0.08029  -0.03863  -0.00631   0.01349   0.02470
 Alpha virt. eigenvalues --    0.04074   0.05659   0.07662   0.09807   0.11725
 Alpha virt. eigenvalues --    0.12958   0.13236   0.14495   0.15310   0.16898

 Mulliken charges:
               1
     1  O   -0.480289
     2  N   -0.383572
     3  C    0.468876
     4  C   -0.125255
     5  C    0.110864
     6  C    0.028401
     7  C   -0.123371
     8  H    0.261615
     9  H    0.057630
    10  H    0.065128
    11  H    0.063209
    12  H    0.056765
 Sum of Mulliken charges =   0.00000

 Dipole moment (field-independent basis, Debye):
    X=              3.3784    Y=             -0.3490    Z=              0.0000  Tot=              3.3964
 Quadrupole moment (field-independent basis, Debye-Ang):
   XX=            -45.2167   YY=            -35.2998   ZZ=            -43.4176
   XY=              0.8588   XZ=              0.0001   YZ=             -0.0002

  Exact polarizability:  93.578  -1.346  78.183   0.000  -0.000  38.686
 Approx polarizability: 209.251  -8.591 165.569  -0.000   0.000  65.776

 ******    1 imaginary frequencies (negative Signs) ******

                      1                      2                      3
                      A                      A                      A
 Frequencies --  -1735.9628               176.0936               400.9547
 Red. masses --      1.0709                 6.8146                 3.3660
 Frc consts  --      1.9015                 0.1245                 0.3188
 IR Inten    --    506.4969                 0.0100                 2.1721

                      4                      5                      6
                      A                      A                      A
 Frequencies --    473.1670               481.3699               591.5445
 Red. masses --      2.4803                 7.1365                 7.2425
 Frc consts  --      0.3272                 0.9743                 1.4932
 IR Inten    --     16.1209                 3.1344                 2.7897

                      7                      8                      9
                      A                      A                      A
 Frequencies --    651.7426               710.0951               742.5433
 Red. masses --      7.1115                 3.1153                 1.4087
 Frc consts  --      1.7798                 0.9255                 0.4576
 IR Inten    --      0.1796                 5.1067                54.2955

                     10                     11                     12
                      A                      A                      A
 Frequencies --    826.8244               861.1623               923.3729
 Red. masses --      1.3594                 5.8020                 1.3540
 Frc consts  --      0.5475                 2.5351                 0.6802
 IR Inten    --      2.3341                 6.0564                 1.3541

                     13                     14                     15
                      A                      A                      A
 Frequencies --    962.3533               988.7603              1007.2769
 Red. masses --      1.2906                 6.1606                 2.1908
 Frc consts  --      0.7042                 3.5486                 1.3096
 IR Inten    --      0.0386                13.7897                 4.3571

                     16                     17                     18
                      A                      A                      A
 Frequencies --   1072.9065              1105.7453              1150.4478
 Red. masses --      1.1794                 1.5326                 1.1128
 Frc consts  --      0.7999                 1.1040                 0.8677
 IR Inten    --     50.4422                 4.4378                12.7507

                     19                     20                     21
                      A                      A                      A
 Frequencies --   1225.3417              1287.5065              1357.7361
 Red. masses --      3.2372                 2.1230                 2.5508
 Frc consts  --      2.8637                 2.0734                 2.7705
 IR Inten    --      2.8795                31.7250                24.8148

                     22                     23                     24
                      A                      A                      A
 Frequencies --   1434.8703              1471.3964              1522.2320
 Red. masses --      2.1702                 3.7683                 4.5380
 Frc consts  --      2.6325                 4.8068                 6.1956
 IR Inten    --      3.3895               257.5921                27.4164

                     25                     26                     27
                      A                      A                      A
 Frequencies --   1583.9237              2001.8916              3100.1567
 Red. masses --      5.5477                 1.0855                 1.0883
 Frc consts  --      8.2004                 2.5632                 6.1624
 IR Inten    --    322.4393                31.2326                 8.2971

                     28                     29                     30
                      A                      A                      A
 Frequencies --   3118.2740              3140.2557              3143.8678
 Red. masses --      1.0893                 1.0932                 1.0942
 Frc consts  --      6.2406                 6.3517                 6.3722
 IR Inten    --      4.4431                 8.2506                 0.8858

 - Thermochemistry -
 -------------------
 Temperature   298.150 Kelvin.  Pressure   1.00000 Atm.
 Atom     1 has atomic number  8 and mass  15.99491

 Molecular mass:    95.03711 amu.
 Principal axes and moments of inertia in atomic units:
                           1         2         3
     Eigenvalues --   318.57795 637.31949 955.89744
           X            0.99997   0.00802   0.00000
           Y           -0.00802   0.99997  -0.00000
           Z           -0.00000   0.00000   1.00000
 This molecule is an asymmetric top.
 Rotational symmetry number  1.
 Rotational temperatures (Kelvin)      0.27188     0.13590     0.09061
 Rotational constants (GHZ):           5.66499     2.83177     1.88801
    1 imaginary frequencies ignored.
 Zero-point vibrational energy     224382.4 (Joules/Mol)
                                   53.62869 (Kcal/Mol)
 Warning -- explicit consideration of   5 degrees of freedom as
           vibrations may cause significant error
 Vibrational temperatures:    253.36   576.88   680.78   692.58   851.10
          (Kelvin)            937.71  1021.67  1068.35  1189.61  1239.02
                             1328.53  1384.61  1422.60  1449.24  1543.67
                             1590.92  1655.24  1762.99  1852.43  1953.48
                             2064.46  2117.01  2190.15  2278.91  2880.27
                             4460.43  4486.50  4518.12  4523.32

 Zero-point correction=                           0.085463 (Hartree/Particle)
 Thermal correction to Energy=                    0.090618
 Thermal correction to Enthalpy=                  0.091562
 Thermal correction to Gibbs Free Energy=         0.056605
 Sum of electronic and zero-point Energies=           -323.420549
 Sum of electronic and thermal Energies=              -323.415394
 Sum of electronic and thermal Enthalpies=            -323.414450
 Sum of electronic and thermal Free Energies=         -323.449407

                     E (Thermal)             CV                S
                      KCal/Mol        Cal/Mol-Kelvin    Cal/Mol-Kelvin
 Total                   56.864             19.846             73.574
 Electronic               0.000              0.000              0.000
 Translational            0.889              2.981             39.566
 Rotational               0.889              2.981             26.765
 Vibrational             55.086             13.884              7.243
 Vibration     1          0.628              1.872              2.369
 Vibration     2          0.767              1.468              0.959
 Vibration     3          0.830              1.310              0.729
 Vibration     4          0.838              1.291              0.706
 Vibration     5          0.949              1.050              0.464

 Optimization completed.
    -- Stationary point found.
 Normal termination of Gaussian 09 at Sat Aug 28 00:56:22 2021.
