 Gaussian 09, Revision E.01,
 Gaussian 09:  EM64L-G09RevE.01 30-Nov-2015

 --------------------
 #p opt freq M06L/gen
 --------------------

 --------------------
 HY_M06L_PC2_OPT_FREQ
 --------------------
 Symbolic Z-matrix:
 Charge =  0 Multiplicity = 1

 SCF Done:  E(RM06L) =  -323.596390357     A.U. after   17 cycles
 SCF Done:  E(RM06L) =  -323.596486485     A.U. after   10 cycles
 SCF Done:  E(RM06L) =  -323.596490018     A.U. after    8 cycles
 Optimization completed.
    -- Stationary point found.
 Normal termination of Gaussian 09 at Fri Aug 27 00:05:46 2021.

 -----------------------------------------------------------------
 #P Geom=AllCheck Guess=TCheck SCRF=Check GenChk RM06L/ChkBas Freq
 -----------------------------------------------------------------

 Structure from the checkpoint file:  "HY_M06L_PC2_OPT_FREQ.chk"
 --------------------
 HY_M06L_PC2_OPT_FREQ
 --------------------
 Charge =  0 Multiplicity = 1

                         Standard orientation:
 ---------------------------------------------------------------------
 Center     Atomic      Atomic             Coordinates (Angstroms)
 Number     Number       Type             X           Y           Z
 ---------------------------------------------------------------------
      1          8           0        0.001327    2.245099    0.000000
      2          7           0       -1.177239    0.295207   -0.000000
      3          6           0       -0.000000    0.898664    0.000000
      4          6           0        1.222503    0.227872    0.000000
      5          6           0       -1.183145   -1.039112   -0.000000
      6          6           0        1.189004   -1.149276    0.000000
      7          6           0       -0.036080   -1.808043   -0.000000
      8          1           0       -0.924908    2.507031    0.000000
      9          1           0        2.145462    0.785643    0.000000
     10          1           0       -2.161186   -1.504955   -0.000000
     11          1           0        2.112286   -1.710789    0.000000
     12          1           0       -0.095285   -2.884799   -0.000000
 ---------------------------------------------------------------------

 SCF Done:  E(RM06L) =  -323.596490018     A.U. after    1 cycles

 The electronic state is 1-A'.
 Alpha  occ. eigenvalues --  -18.99575 -14.16537 -10.13934 -10.08418 -10.06746
 Alpha  occ. eigenvalues --  -10.05454 -10.05014  -1.05112  -0.90415  -0.77372
 Alpha  occ. eigenvalues --   -0.72181  -0.61157  -0.59232  -0.51679  -0.47818
 Alpha  occ. eigenvalues --   -0.44681  -0.41026  -0.40384  -0.37804  -0.36457
 Alpha  occ. eigenvalues --   -0.33350  -0.32384  -0.26866  -0.24085  -0.21796
 Alpha virt. eigenvalues --   -0.05193  -0.02456   0.03560   0.04206   0.05447
 Alpha virt. eigenvalues --    0.07296   0.08833   0.11435   0.14430   0.16841
 Alpha virt. eigenvalues --    0.18015   0.19067   0.19145   0.21160   0.22143

 Mulliken charges:
               1
     1  O   -0.516991
     2  N   -0.609942
     3  C    0.760338
     4  C   -0.103903
     5  C    0.261734
     6  C    0.166493
     7  C   -0.115238
     8  H    0.252007
     9  H   -0.028284
    10  H    0.001317
    11  H   -0.021973
    12  H   -0.045559
 Sum of Mulliken charges =  -0.00000

 Dipole moment (field-independent basis, Debye):
    X=              0.4777    Y=             -1.0005    Z=             -0.0000  Tot=              1.1087
 Quadrupole moment (field-independent basis, Debye-Ang):
   XX=            -37.7663   YY=            -36.3596   ZZ=            -41.9482
   XY=             -2.0240   XZ=             -0.0000   YZ=             -0.0000

  Exact polarizability:  73.264  -0.040  84.792   0.000   0.000  36.902
 Approx polarizability: 140.735   2.395 159.533   0.000   0.000  57.514

                      1                      2                      3
                     A"                     A"                     A'
 Frequencies --    216.6882               420.9743               422.0666
 Red. masses --      4.9905                 3.5330                 4.2764
 Frc consts  --      0.1381                 0.3689                 0.4488
 IR Inten    --      0.8572                 0.4847                15.1641

                      4                      5                      6
                     A"                     A'                     A"
 Frequencies --    516.4106               570.4071               588.8178
 Red. masses --      1.7928                 6.9579                 1.3661
 Frc consts  --      0.2817                 1.3338                 0.2791
 IR Inten    --     47.2747                 0.6054                59.9121

                      7                      8                      9
                     A'                     A"                     A"
 Frequencies --    638.5701               765.0083               800.7651
 Red. masses --      6.9956                 1.9733                 2.1516
 Frc consts  --      1.6807                 0.6804                 0.8129
 IR Inten    --      2.5486                 4.8488                49.0192

                     10                     11                     12
                     A'                     A"                     A"
 Frequencies --    867.7486               887.2580               979.5447
 Red. masses --      5.7031                 1.3572                 1.4055
 Frc consts  --      2.5302                 0.6295                 0.7946
 IR Inten    --     12.2202                 1.9102                 0.1731

                     13                     14                     15
                     A'                     A"                     A'
 Frequencies --   1008.5234              1013.2661              1065.7003
 Red. masses --      6.5819                 1.2866                 2.0606
 Frc consts  --      3.9443                 0.7783                 1.3789
 IR Inten    --      7.1481                 0.0623                 2.6560

                     16                     17                     18
                     A'                     A'                     A'
 Frequencies --   1114.6475              1166.8160              1212.3825
 Red. masses --      1.6273                 1.1324                 1.3603
 Frc consts  --      1.1912                 0.9083                 1.1781
 IR Inten    --     17.8898                23.0736               137.5641

                     19                     20                     21
                     A'                     A'                     A'
 Frequencies --   1330.9606              1339.0034              1382.5224
 Red. masses --      3.0760                 3.7054                 1.5490
 Frc consts  --      3.2105                 3.9143                 1.7444
 IR Inten    --     31.6601                59.6950                51.6084

                     22                     23                     24
                     A'                     A'                     A'
 Frequencies --   1497.8683              1513.8680              1627.9655
 Red. masses --      2.6525                 2.3600                 5.6737
 Frc consts  --      3.5063                 3.1866                 8.8595
 IR Inten    --     63.0471               111.0576                89.8892

                     25                     26                     27
                     A'                     A'                     A'
 Frequencies --   1653.5615              3185.0585              3190.3582
 Red. masses --      5.3625                 1.0862                 1.0898
 Frc consts  --      8.6389                 6.4923                 6.5355
 IR Inten    --     89.2546                 9.9264                16.4876

                     28                     29                     30
                     A'                     A'                     A'
 Frequencies --   3215.7097              3221.5484              3791.9613
 Red. masses --      1.0930                 1.0976                 1.0643
 Frc consts  --      6.6589                 6.7113                 9.0163
 IR Inten    --     13.4449                 9.8648                56.7704

 - Thermochemistry -
 -------------------
 Temperature   298.150 Kelvin.  Pressure   1.00000 Atm.
 Atom     1 has atomic number  8 and mass  15.99491

 Molecular mass:    95.03711 amu.
 Principal axes and moments of inertia in atomic units:
                           1         2         3
     Eigenvalues --   306.12831 645.58937 951.71768
           X           -0.03191   0.99949   0.00000
           Y            0.99949   0.03191   0.00000
           Z           -0.00000  -0.00000   1.00000
 This molecule is an asymmetric top.
 Rotational symmetry number  1.
 Rotational temperatures (Kelvin)      0.28293     0.13416     0.09101
 Rotational constants (GHZ):           5.89538     2.79549     1.89630
 Zero-point vibrational energy     246466.5 (Joules/Mol)
                                   58.90691 (Kcal/Mol)
 Warning -- explicit consideration of   6 degrees of freedom as
           vibrations may cause significant error
 Vibrational temperatures:    311.77   605.69   607.26   743.00   820.69
          (Kelvin)            847.18   918.76  1100.67  1152.12  1248.50
                             1276.56  1409.34  1451.04  1457.86  1533.30
                             1603.73  1678.79  1744.35  1914.95  1926.52
                             1989.14  2155.10  2178.12  2342.28  2379.10
                             4582.58  4590.21  4626.68  4635.08  5455.78

 Zero-point correction=                           0.093874 (Hartree/Particle)
 Thermal correction to Energy=                    0.099040
 Thermal correction to Enthalpy=                  0.099984
 Thermal correction to Gibbs Free Energy=         0.065115
 Sum of electronic and zero-point Energies=           -323.502616
 Sum of electronic and thermal Energies=              -323.497450
 Sum of electronic and thermal Enthalpies=            -323.496506
 Sum of electronic and thermal Free Energies=         -323.531375

                     E (Thermal)             CV                S
                      KCal/Mol        Cal/Mol-Kelvin    Cal/Mol-Kelvin
 Total                   62.149             20.111             73.389
 Electronic               0.000              0.000              0.000
 Translational            0.889              2.981             39.566
 Rotational               0.889              2.981             26.733
 Vibrational             60.371             14.149              7.089
 Vibration     1          0.646              1.816              1.987
 Vibration     2          0.783              1.425              0.889
 Vibration     3          0.784              1.422              0.885
 Vibration     4          0.871              1.214              0.618
 Vibration     5          0.927              1.095              0.503
 Vibration     6          0.946              1.056              0.469

 Optimization completed.
    -- Stationary point found.
 Normal termination of Gaussian 09 at Fri Aug 27 00:06:29 2021.
