 Gaussian 09, Revision E.01,
 Gaussian 09:  EM64L-G09RevE.01 30-Nov-2015

 -----------------------------------------------
 #p opt=(calcfc,qst3,MaxCycle=200) freq M06L/gen
 -----------------------------------------------

 --------------------
 HY_M06L_PC2_OPT_FREQ
 --------------------
 Symbolic Z-matrix:
 Charge =  0 Multiplicity = 1

 --------------------
 PY_M06L_PC2_OPT_FREQ
 --------------------
 Symbolic Z-matrix:
 Charge =  0 Multiplicity = 1

 ------------
 TST_GAS_M06L
 ------------
 Symbolic Z-matrix:
 Charge =  0 Multiplicity = 1

 SCF Done:  E(RM06L) =  -323.520739167     A.U. after   19 cycles
 SCF Done:  E(RM06L) =  -323.530829758     A.U. after   16 cycles
 SCF Done:  E(RM06L) =  -323.541765645     A.U. after   16 cycles
 SCF Done:  E(RM06L) =  -323.543735766     A.U. after   16 cycles
 SCF Done:  E(RM06L) =  -323.547565819     A.U. after   16 cycles
 SCF Done:  E(RM06L) =  -323.542167833     A.U. after   16 cycles
 SCF Done:  E(RM06L) =  -323.539385645     A.U. after   16 cycles
 SCF Done:  E(RM06L) =  -323.540166875     A.U. after   15 cycles
 SCF Done:  E(RM06L) =  -323.540199785     A.U. after   14 cycles
 SCF Done:  E(RM06L) =  -323.540314768     A.U. after   14 cycles
 SCF Done:  E(RM06L) =  -323.540284169     A.U. after   14 cycles
 SCF Done:  E(RM06L) =  -323.540319386     A.U. after   13 cycles
 Optimization completed.
    -- Stationary point found.
 Normal termination of Gaussian 09 at Sat Aug 28 00:55:24 2021.

 -----------------------------------------------------------------
 #P Geom=AllCheck Guess=TCheck SCRF=Check GenChk RM06L/ChkBas Freq
 -----------------------------------------------------------------

 Structure from the checkpoint file:  "TST_GAS_M06L.chk"
 --------------------
 HY_M06L_PC2_OPT_FREQ
 --------------------
 Charge =  0 Multiplicity = 1

                         Standard orientation:
 ---------------------------------------------------------------------
 Center     Atomic      Atomic             Coordinates (Angstroms)
 Number     Number       Type             X           Y           Z
 ---------------------------------------------------------------------
      1          8           0       -2.224832    0.032263   -0.000436
      2          7           0       -0.418499   -1.046408    0.000448
      3          6           0       -0.955246    0.203429    0.000221
      4          6           0       -0.116146    1.326762    0.000269
      5          6           0        0.893223   -1.279292   -0.000133
      6          6           0        1.239951    1.084768   -0.000052
      7          6           0        1.766368   -0.213292   -0.000184
      8          1           0       -1.686191   -1.223393    0.000130
      9          1           0       -0.524995    2.323723    0.000228
     10          1           0        1.218145   -2.309473   -0.000097
     11          1           0        1.922034    1.923837   -0.000334
     12          1           0        2.830256   -0.382189   -0.000299
 ---------------------------------------------------------------------

 SCF Done:  E(RM06L) =  -323.540319386     A.U. after    1 cycles

 The electronic state is 1-A.
 Alpha  occ. eigenvalues --  -18.94484 -14.20161 -10.14159 -10.10741 -10.07861
 Alpha  occ. eigenvalues --  -10.06085 -10.05913  -1.03050  -0.90588  -0.78352
 Alpha  occ. eigenvalues --   -0.72643  -0.63048  -0.58865  -0.51031  -0.47387
 Alpha  occ. eigenvalues --   -0.44365  -0.41285  -0.41224  -0.39050  -0.35887
 Alpha  occ. eigenvalues --   -0.31716  -0.31275  -0.28325  -0.26119  -0.20607
 Alpha virt. eigenvalues --   -0.07011  -0.02421   0.02537   0.04137   0.05581
 Alpha virt. eigenvalues --    0.06776   0.08170   0.10236   0.13083   0.14817
 Alpha virt. eigenvalues --    0.16644   0.18247   0.18250   0.18432   0.21679

 Mulliken charges:
               1
     1  O   -0.629864
     2  N   -0.582142
     3  C    0.743814
     4  C   -0.131302
     5  C    0.267148
     6  C    0.186029
     7  C   -0.121059
     8  H    0.313125
     9  H   -0.019423
    10  H    0.019251
    11  H   -0.013965
    12  H   -0.031612
 Sum of Mulliken charges =   0.00000

 Dipole moment (field-independent basis, Debye):
    X=              3.1921    Y=             -0.3860    Z=              0.0003  Tot=              3.2154
 Quadrupole moment (field-independent basis, Debye-Ang):
   XX=            -43.9677   YY=            -34.4379   ZZ=            -41.9450
   XY=              0.8937   XZ=             -0.0029   YZ=              0.0004

  Exact polarizability:  88.768  -1.549  73.635  -0.002   0.001  36.441
 Approx polarizability: 183.330  -7.609 146.058  -0.002   0.002  56.955

 ******    1 imaginary frequencies (negative Signs) ******

                      1                      2                      3
                      A                      A                      A
 Frequencies --  -1781.8525               186.5882               413.8453
 Red. masses --      1.0759                 6.8474                 3.3932
 Frc consts  --      2.0126                 0.1405                 0.3424
 IR Inten    --    546.6652                 0.0193                 1.9455

                      4                      5                      6
                      A                      A                      A
 Frequencies --    487.7439               498.2957               610.3996
 Red. masses --      2.4467                 7.0795                 7.0982
 Frc consts  --      0.3429                 1.0357                 1.5582
 IR Inten    --     14.6961                 2.5328                 2.3418

                      7                      8                      9
                      A                      A                      A
 Frequencies --    675.2310               745.2425               776.5156
 Red. masses --      6.8711                 2.8454                 1.4898
 Frc consts  --      1.8458                 0.9311                 0.5293
 IR Inten    --      0.2576                 4.9219                47.2484

                     10                     11                     12
                      A                      A                      A
 Frequencies --    857.5729               899.6109               973.7401
 Red. masses --      1.3689                 5.6648                 1.3459
 Frc consts  --      0.5932                 2.7011                 0.7519
 IR Inten    --      1.7612                 5.7571                 1.0754

                     13                     14                     15
                      A                      A                      A
 Frequencies --   1008.5779              1019.7362              1042.3146
 Red. masses --      1.2856                 5.5740                 2.1537
 Frc consts  --      0.7705                 3.4150                 1.3786
 IR Inten    --      0.1146                11.9024                 4.4613

                     16                     17                     18
                      A                      A                      A
 Frequencies --   1122.7359              1141.4654              1175.2903
 Red. masses --      1.1750                 1.4362                 1.1122
 Frc consts  --      0.8727                 1.1025                 0.9052
 IR Inten    --     55.8127                 5.6851                12.7806

                     19                     20                     21
                      A                      A                      A
 Frequencies --   1280.8289              1337.9499              1413.6661
 Red. masses --      2.3254                 2.6594                 2.3087
 Frc consts  --      2.2476                 2.8049                 2.7184
 IR Inten    --      0.2753                32.2927                 7.2136

                     22                     23                     24
                      A                      A                      A
 Frequencies --   1487.2104              1549.6566              1591.7186
 Red. masses --      2.4294                 4.7856                 4.9368
 Frc consts  --      3.1659                 6.7710                 7.3694
 IR Inten    --      4.2478               246.0428                24.0752

                     25                     26                     27
                      A                      A                      A
 Frequencies --   1676.7245              2068.1867              3190.2498
 Red. masses --      6.4027                 1.0804                 1.0882
 Frc consts  --     10.6056                 2.7227                 6.5256
 IR Inten    --    483.4945                38.2677                 8.8780

                     28                     29                     30
                      A                      A                      A
 Frequencies --   3212.8350              3229.8188              3234.1517
 Red. masses --      1.0884                 1.0958                 1.0951
 Frc consts  --      6.6196                 6.7350                 6.7490
 IR Inten    --      4.3923                12.2547                 0.7585

 - Thermochemistry -
 -------------------
 Temperature   298.150 Kelvin.  Pressure   1.00000 Atm.
 Atom     1 has atomic number  8 and mass  15.99491

 Molecular mass:    95.03711 amu.
 Principal axes and moments of inertia in atomic units:
                           1         2         3
     Eigenvalues --   312.36976 623.13639 935.50609
           X            0.99997   0.00749  -0.00001
           Y           -0.00749   0.99997   0.00000
           Z            0.00001  -0.00000   1.00000
 This molecule is an asymmetric top.
 Rotational symmetry number  1.
 Rotational temperatures (Kelvin)      0.27728     0.13900     0.09258
 Rotational constants (GHZ):           5.77758     2.89622     1.92916
    1 imaginary frequencies ignored.
 Zero-point vibrational energy     232720.9 (Joules/Mol)
                                   55.62164 (Kcal/Mol)
 Warning -- explicit consideration of   5 degrees of freedom as
           vibrations may cause significant error
 Vibrational temperatures:    268.46   595.43   701.75   716.94   878.23
          (Kelvin)            971.51  1072.24  1117.23  1233.85  1294.34
                             1400.99  1451.12  1467.17  1499.66  1615.36
                             1642.31  1690.98  1842.82  1925.01  2033.95
                             2139.76  2229.61  2290.13  2412.43  2975.66
                             4590.05  4622.55  4646.98  4653.22

 Zero-point correction=                           0.088639 (Hartree/Particle)
 Thermal correction to Energy=                    0.093632
 Thermal correction to Enthalpy=                  0.094577
 Thermal correction to Gibbs Free Energy=         0.059905
 Sum of electronic and zero-point Energies=           -323.451681
 Sum of electronic and thermal Energies=              -323.446687
 Sum of electronic and thermal Enthalpies=            -323.445743
 Sum of electronic and thermal Free Energies=         -323.480415

                     E (Thermal)             CV                S
                      KCal/Mol        Cal/Mol-Kelvin    Cal/Mol-Kelvin
 Total                   58.755             19.002             72.973
 Electronic               0.000              0.000              0.000
 Translational            0.889              2.981             39.566
 Rotational               0.889              2.981             26.701
 Vibrational             56.978             13.040              6.706
 Vibration     1          0.632              1.858              2.261
 Vibration     2          0.777              1.440              0.913
 Vibration     3          0.844              1.277              0.689
 Vibration     4          0.854              1.254              0.662
 Vibration     5          0.969              1.010              0.432

 Optimization completed.
    -- Stationary point found.
 Normal termination of Gaussian 09 at Sat Aug 28 00:56:12 2021.
