 Gaussian 09, Revision E.01,
 Gaussian 09:  EM64L-G09RevE.01 30-Nov-2015

 ----------------------
 #p opt freq PBEPBE/gen
 ----------------------

 ----------------------
 HY_PBEPBE_PC2_OPT_FREQ
 ----------------------
 Symbolic Z-matrix:
 Charge =  0 Multiplicity = 1

 SCF Done:  E(RPBE-PBE) =  -323.269658383     A.U. after   14 cycles
 SCF Done:  E(RPBE-PBE) =  -323.271191396     A.U. after   12 cycles
 SCF Done:  E(RPBE-PBE) =  -323.271233833     A.U. after   10 cycles
 SCF Done:  E(RPBE-PBE) =  -323.271237445     A.U. after    8 cycles
 Optimization completed.
    -- Stationary point found.
 Normal termination of Gaussian 09 at Thu Aug 26 23:59:30 2021.

 -------------------------------------------------------------------
 #P Geom=AllCheck Guess=TCheck SCRF=Check GenChk RPBEPBE/ChkBas Freq
 -------------------------------------------------------------------

 Structure from the checkpoint file:  "HY_PBEPBE_PC2_OPT_FREQ.chk"
 ----------------------
 HY_PBEPBE_PC2_OPT_FREQ
 ----------------------
 Charge =  0 Multiplicity = 1

                         Standard orientation:
 ---------------------------------------------------------------------
 Center     Atomic      Atomic             Coordinates (Angstroms)
 Number     Number       Type             X           Y           Z
 ---------------------------------------------------------------------
      1          8           0       -0.002324    2.263254    0.000000
      2          7           0       -1.184913    0.295400    0.000000
      3          6           0       -0.000000    0.905390    0.000000
      4          6           0        1.231567    0.231135   -0.000000
      5          6           0       -1.191407   -1.048475    0.000000
      6          6           0        1.199310   -1.156911   -0.000000
      7          6           0       -0.033859   -1.820892   -0.000000
      8          1           0       -0.944812    2.519948    0.000000
      9          1           0        2.163708    0.793722   -0.000000
     10          1           0       -2.178004   -1.518494    0.000000
     11          1           0        2.132037   -1.722250   -0.000000
     12          1           0       -0.093610   -2.908241   -0.000000
 ---------------------------------------------------------------------

 SCF Done:  E(RPBE-PBE) =  -323.271237445     A.U. after    1 cycles

 The electronic state is 1-A'.
 Alpha  occ. eigenvalues --  -18.78650 -13.98647  -9.97984  -9.92657  -9.91066
 Alpha  occ. eigenvalues --   -9.89982  -9.89504  -0.99161  -0.86110  -0.73720
 Alpha  occ. eigenvalues --   -0.68958  -0.58940  -0.57240  -0.50346  -0.46686
 Alpha  occ. eigenvalues --   -0.43523  -0.40097  -0.39464  -0.36923  -0.35554
 Alpha  occ. eigenvalues --   -0.32861  -0.31743  -0.26742  -0.23649  -0.21860
 Alpha virt. eigenvalues --   -0.06743  -0.04211   0.00329   0.01023   0.02920
 Alpha virt. eigenvalues --    0.04933   0.06677   0.08662   0.11246   0.13251
 Alpha virt. eigenvalues --    0.13844   0.14462   0.15641   0.17336   0.17936

 Mulliken charges:
               1
     1  O   -0.362368
     2  N   -0.393838
     3  C    0.464587
     4  C   -0.133674
     5  C    0.104252
     6  C    0.026771
     7  C   -0.136348
     8  H    0.209385
     9  H    0.053394
    10  H    0.061163
    11  H    0.059986
    12  H    0.046688
 Sum of Mulliken charges =  -0.00000

 Dipole moment (field-independent basis, Debye):
    X=              0.4859    Y=             -1.1198    Z=             -0.0000  Tot=              1.2207
 Quadrupole moment (field-independent basis, Debye-Ang):
   XX=            -38.0465   YY=            -36.9107   ZZ=            -43.2331
   XY=             -1.9628   XZ=              0.0000   YZ=             -0.0000

  Exact polarizability:  76.640  -0.088  89.679  -0.000  -0.000  38.655
 Approx polarizability: 156.355   2.386 180.303  -0.000   0.000  65.002

                      1                      2                      3
                     A"                     A"                     A'
 Frequencies --    201.6847               405.6722               406.5578
 Red. masses --      4.9650                 3.5486                 4.2041
 Frc consts  --      0.1190                 0.3441                 0.4094
 IR Inten    --      0.7895                 0.4256                16.5681

                      4                      5                      6
                     A"                     A'                     A"
 Frequencies --    490.9545               548.9959               560.0986
 Red. masses --      1.6748                 6.9941                 1.4413
 Frc consts  --      0.2378                 1.2420                 0.2664
 IR Inten    --     61.1442                 0.4429                47.8569

                      7                      8                      9
                     A'                     A"                     A"
 Frequencies --    618.9931               729.6133               767.6028
 Red. masses --      7.0560                 1.9199                 2.2110
 Frc consts  --      1.5929                 0.6021                 0.7676
 IR Inten    --      2.2384                 8.8701                51.9055

                     10                     11                     12
                     A'                     A"                     A"
 Frequencies --    840.0741               846.6518               935.7080
 Red. masses --      5.7487                 1.3662                 1.4026
 Frc consts  --      2.3903                 0.5770                 0.7236
 IR Inten    --     12.3863                 1.0780                 0.5169

                     13                     14                     15
                     A"                     A'                     A'
 Frequencies --    960.9852               976.3756              1036.7006
 Red. masses --      1.2859                 6.5658                 2.0244
 Frc consts  --      0.6996                 3.6879                 1.2819
 IR Inten    --      0.0016                 6.6066                 3.2522

                     16                     17                     18
                     A'                     A'                     A'
 Frequencies --   1076.9695              1133.0194              1163.2808
 Red. masses --      1.5866                 1.1047                 1.3223
 Frc consts  --      1.0843                 0.8356                 1.0543
 IR Inten    --     23.1782                21.8947               141.3166

                     19                     20                     21
                     A'                     A'                     A'
 Frequencies --   1287.2165              1304.3411              1338.0385
 Red. masses --      3.2917                 2.0488                 2.3537
 Frc consts  --      3.2135                 2.0537                 2.4828
 IR Inten    --     62.5154                 5.6231                46.0782

                     22                     23                     24
                     A'                     A'                     A'
 Frequencies --   1447.4123              1461.8739              1578.7475
 Red. masses --      2.6914                 2.4541                 6.1458
 Frc consts  --      3.3220                 3.0901                 9.0252
 IR Inten    --     42.2324               112.2881                81.0053

                     25                     26                     27
                     A'                     A'                     A'
 Frequencies --   1600.0364              3085.4243              3111.5374
 Red. masses --      5.6904                 1.0890                 1.0878
 Frc consts  --      8.5833                 6.1082                 6.2052
 IR Inten    --     78.5263                16.2573                 6.0736

                     28                     29                     30
                     A'                     A'                     A'
 Frequencies --   3135.3601              3140.6274              3629.8742
 Red. masses --      1.0927                 1.0965                 1.0637
 Frc consts  --      6.3286                 6.3722                 8.2573
 IR Inten    --     11.6768                 2.5920                58.7742

 - Thermochemistry -
 -------------------
 Temperature   298.150 Kelvin.  Pressure   1.00000 Atm.
 Atom     1 has atomic number  8 and mass  15.99491

 Molecular mass:    95.03711 amu.
 Principal axes and moments of inertia in atomic units:
                           1         2         3
     Eigenvalues --   310.81866 655.53465 966.35332
           X           -0.03338   0.99944   0.00000
           Y            0.99944   0.03338   0.00000
           Z            0.00000   0.00000   1.00000
 This molecule is an asymmetric top.
 Rotational symmetry number  1.
 Rotational temperatures (Kelvin)      0.27866     0.13213     0.08963
 Rotational constants (GHZ):           5.80641     2.75308     1.86758
 Zero-point vibrational energy     238179.0 (Joules/Mol)
                                   56.92616 (Kcal/Mol)
 Warning -- explicit consideration of   7 degrees of freedom as
           vibrations may cause significant error
 Vibrational temperatures:    290.18   583.67   584.95   706.37   789.88
          (Kelvin)            805.86   890.59  1049.75  1104.41  1208.68
                             1218.14  1346.27  1382.64  1404.78  1491.58
                             1549.52  1630.16  1673.70  1852.02  1876.65
                             1925.14  2082.50  2103.31  2271.46  2302.09
                             4439.23  4476.80  4511.08  4518.66  5222.57

 Zero-point correction=                           0.090718 (Hartree/Particle)
 Thermal correction to Energy=                    0.096075
 Thermal correction to Enthalpy=                  0.097019
 Thermal correction to Gibbs Free Energy=         0.061821
 Sum of electronic and zero-point Energies=           -323.180520
 Sum of electronic and thermal Energies=              -323.175163
 Sum of electronic and thermal Enthalpies=            -323.174219
 Sum of electronic and thermal Free Energies=         -323.209416

                     E (Thermal)             CV                S
                      KCal/Mol        Cal/Mol-Kelvin    Cal/Mol-Kelvin
 Total                   60.288             20.994             74.079
 Electronic               0.000              0.000              0.000
 Translational            0.889              2.981             39.566
 Rotational               0.889              2.981             26.779
 Vibrational             58.510             15.033              7.734
 Vibration     1          0.639              1.838              2.118
 Vibration     2          0.771              1.458              0.942
 Vibration     3          0.771              1.456              0.939
 Vibration     4          0.847              1.270              0.681
 Vibration     5          0.904              1.142              0.546
 Vibration     6          0.916              1.118              0.524
 Vibration     7          0.979              0.992              0.418

 Optimization completed.
    -- Stationary point found.
 Normal termination of Gaussian 09 at Fri Aug 27 00:00:08 2021.
