 Gaussian 09, Revision E.01,
 Gaussian 09:  EM64L-G09RevE.01 30-Nov-2015

 -------------------------------------------------
 #p opt=(calcfc,qst3,MaxCycle=200) freq PBEPBE/gen
 -------------------------------------------------

 ----------------------
 HY_PBEPBE_PC2_OPT_FREQ
 ----------------------
 Symbolic Z-matrix:
 Charge =  0 Multiplicity = 1

 ----------------------
 PY_PBEPBE_PC2_OPT_FREQ
 ----------------------
 Symbolic Z-matrix:
 Charge =  0 Multiplicity = 1

 --------------
 TST_GAS_PBEPBE
 --------------
 Symbolic Z-matrix:
 Charge =  0 Multiplicity = 1

 SCF Done:  E(RPBE-PBE) =  -323.203505845     A.U. after   16 cycles
 SCF Done:  E(RPBE-PBE) =  -323.213511354     A.U. after   13 cycles
 SCF Done:  E(RPBE-PBE) =  -323.221812746     A.U. after   13 cycles
 SCF Done:  E(RPBE-PBE) =  -323.223013030     A.U. after   13 cycles
 SCF Done:  E(RPBE-PBE) =  -323.227944398     A.U. after   13 cycles
 SCF Done:  E(RPBE-PBE) =  -323.223556094     A.U. after   13 cycles
 SCF Done:  E(RPBE-PBE) =  -323.221604022     A.U. after   14 cycles
 SCF Done:  E(RPBE-PBE) =  -323.222606161     A.U. after   12 cycles
 SCF Done:  E(RPBE-PBE) =  -323.221695478     A.U. after   12 cycles
 SCF Done:  E(RPBE-PBE) =  -323.222561453     A.U. after   13 cycles
 SCF Done:  E(RPBE-PBE) =  -323.222665420     A.U. after   13 cycles
 SCF Done:  E(RPBE-PBE) =  -323.222785382     A.U. after   12 cycles
 SCF Done:  E(RPBE-PBE) =  -323.222791170     A.U. after    9 cycles
 SCF Done:  E(RPBE-PBE) =  -323.222791793     A.U. after    8 cycles
 SCF Done:  E(RPBE-PBE) =  -323.222791880     A.U. after    7 cycles
 Optimization completed.
    -- Stationary point found.
 Normal termination of Gaussian 09 at Sat Aug 28 00:55:36 2021.

 -------------------------------------------------------------------
 #P Geom=AllCheck Guess=TCheck SCRF=Check GenChk RPBEPBE/ChkBas Freq
 -------------------------------------------------------------------

 Structure from the checkpoint file:  "TST_GAS_PBEPBE.chk"
 ----------------------
 HY_PBEPBE_PC2_OPT_FREQ
 ----------------------
 Charge =  0 Multiplicity = 1

                         Standard orientation:
 ---------------------------------------------------------------------
 Center     Atomic      Atomic             Coordinates (Angstroms)
 Number     Number       Type             X           Y           Z
 ---------------------------------------------------------------------
      1          8           0       -2.244419    0.035560   -0.000037
      2          7           0       -0.421303   -1.053709    0.000047
      3          6           0       -0.960443    0.204610    0.000042
      4          6           0       -0.115305    1.335068    0.000009
      5          6           0        0.898204   -1.289394   -0.000023
      6          6           0        1.252067    1.092199    0.000002
      7          6           0        1.779384   -0.214939   -0.000013
      8          1           0       -1.707108   -1.236453   -0.000053
      9          1           0       -0.530275    2.340445   -0.000023
     10          1           0        1.225035   -2.329198   -0.000013
     11          1           0        1.940162    1.939228   -0.000018
     12          1           0        2.853223   -0.387799   -0.000029
 ---------------------------------------------------------------------

 SCF Done:  E(RPBE-PBE) =  -323.222791880     A.U. after    1 cycles

 The electronic state is 1-A.
 Alpha  occ. eigenvalues --  -18.73801 -14.02300  -9.98213  -9.94887  -9.92142
 Alpha  occ. eigenvalues --   -9.90644  -9.90430  -0.97412  -0.86126  -0.74668
 Alpha  occ. eigenvalues --   -0.69355  -0.60757  -0.56807  -0.49690  -0.46232
 Alpha  occ. eigenvalues --   -0.43118  -0.40367  -0.40330  -0.38213  -0.35295
 Alpha  occ. eigenvalues --   -0.31202  -0.30995  -0.28115  -0.25703  -0.20717
 Alpha virt. eigenvalues --   -0.08476  -0.04250  -0.00533   0.01552   0.02739
 Alpha virt. eigenvalues --    0.04313   0.05881   0.07516   0.09785   0.11778
 Alpha virt. eigenvalues --    0.13059   0.13232   0.14586   0.15229   0.17050

 Mulliken charges:
               1
     1  O   -0.471696
     2  N   -0.382037
     3  C    0.468931
     4  C   -0.128080
     5  C    0.146339
     6  C    0.035131
     7  C   -0.147201
     8  H    0.236338
     9  H    0.055062
    10  H    0.068957
    11  H    0.063887
    12  H    0.054369
 Sum of Mulliken charges =   0.00000

 Dipole moment (field-independent basis, Debye):
    X=              3.3087    Y=             -0.3579    Z=             -0.0001  Tot=              3.3280
 Quadrupole moment (field-independent basis, Debye-Ang):
   XX=            -44.5031   YY=            -34.7749   ZZ=            -43.2091
   XY=              0.8007   XZ=             -0.0001   YZ=              0.0001

  Exact polarizability:  92.626  -1.400  77.365  -0.000   0.000  38.245
 Approx polarizability: 207.090  -8.374 163.097   0.000   0.000  64.349

 ******    1 imaginary frequencies (negative Signs) ******

                      1                      2                      3
                      A                      A                      A
 Frequencies --  -1680.8646               173.7710               397.7380
 Red. masses --      1.0726                 6.7986                 3.3698
 Frc consts  --      1.7854                 0.1210                 0.3141
 IR Inten    --    493.8496                 0.0087                 2.1448

                      4                      5                      6
                      A                      A                      A
 Frequencies --    469.9284               481.5058               588.7808
 Red. masses --      2.4560                 7.1191                 7.1378
 Frc consts  --      0.3196                 0.9725                 1.4579
 IR Inten    --     17.0307                 2.6367                 2.2437

                      7                      8                      9
                      A                      A                      A
 Frequencies --    651.7108               711.8472               740.2929
 Red. masses --      6.9880                 2.7876                 1.4922
 Frc consts  --      1.7487                 0.8323                 0.4818
 IR Inten    --      0.2202                 8.6549                51.1855

                     10                     11                     12
                      A                      A                      A
 Frequencies --    823.5708               871.9555               920.0045
 Red. masses --      1.3741                 5.6589                 1.3554
 Frc consts  --      0.5491                 2.5349                 0.6759
 IR Inten    --      2.5721                 6.0644                 1.5479

                     13                     14                     15
                      A                      A                      A
 Frequencies --    958.0140               986.5090              1014.8375
 Red. masses --      1.2870                 5.6785                 2.0940
 Frc consts  --      0.6959                 3.2560                 1.2706
 IR Inten    --      0.0207                10.0831                 5.1088

                     16                     17                     18
                      A                      A                      A
 Frequencies --   1080.4970              1105.3198              1139.5215
 Red. masses --      1.1741                 1.4287                 1.0918
 Frc consts  --      0.8076                 1.0284                 0.8353
 IR Inten    --     48.6572                 5.0132                 9.5267

                     19                     20                     21
                      A                      A                      A
 Frequencies --   1240.8684              1303.8196              1366.1686
 Red. masses --      2.0512                 2.8470                 2.4549
 Frc consts  --      1.8608                 2.8514                 2.6995
 IR Inten    --      0.0685                30.9451                 5.5377

                     22                     23                     24
                      A                      A                      A
 Frequencies --   1438.1411              1494.4147              1543.2464
 Red. masses --      2.5990                 4.5867                 5.3682
 Frc consts  --      3.1670                 6.0352                 7.5327
 IR Inten    --      2.8844               230.7888                27.7111

                     25                     26                     27
                      A                      A                      A
 Frequencies --   1614.8700              2040.1681              3108.4136
 Red. masses --      6.4947                 1.0813                 1.0884
 Frc consts  --      9.9790                 2.6518                 6.1962
 IR Inten    --    383.4912                37.8433                 7.0554

                     28                     29                     30
                      A                      A                      A
 Frequencies --   3125.4879              3150.9768              3153.8283
 Red. masses --      1.0899                 1.0930                 1.0955
 Frc consts  --      6.2732                 6.3940                 6.4202
 IR Inten    --      3.8434                 4.9186                 0.5706

 - Thermochemistry -
 -------------------
 Temperature   298.150 Kelvin.  Pressure   1.00000 Atm.
 Atom     1 has atomic number  8 and mass  15.99491

 Molecular mass:    95.03711 amu.
 Principal axes and moments of inertia in atomic units:
                           1         2         3
     Eigenvalues --   316.90685 633.37963 950.28648
           X            0.99997   0.00765  -0.00000
           Y           -0.00765   0.99997   0.00000
           Z            0.00000  -0.00000   1.00000
 This molecule is an asymmetric top.
 Rotational symmetry number  1.
 Rotational temperatures (Kelvin)      0.27331     0.13675     0.09114
 Rotational constants (GHZ):           5.69486     2.84938     1.89915
    1 imaginary frequencies ignored.
 Zero-point vibrational energy     225473.4 (Joules/Mol)
                                   53.88943 (Kcal/Mol)
 Warning -- explicit consideration of   5 degrees of freedom as
           vibrations may cause significant error
 Vibrational temperatures:    250.02   572.26   676.12   692.78   847.12
          (Kelvin)            937.67  1024.19  1065.12  1184.93  1254.55
                             1323.68  1378.37  1419.36  1460.12  1554.59
                             1590.31  1639.52  1785.33  1875.90  1965.61
                             2069.16  2150.13  2220.38  2323.43  2935.34
                             4472.31  4496.87  4533.55  4537.65

 Zero-point correction=                           0.085878 (Hartree/Particle)
 Thermal correction to Energy=                    0.091041
 Thermal correction to Enthalpy=                  0.091985
 Thermal correction to Gibbs Free Energy=         0.057017
 Sum of electronic and zero-point Energies=           -323.136914
 Sum of electronic and thermal Energies=              -323.131751
 Sum of electronic and thermal Enthalpies=            -323.130807
 Sum of electronic and thermal Free Energies=         -323.165775

                     E (Thermal)             CV                S
                      KCal/Mol        Cal/Mol-Kelvin    Cal/Mol-Kelvin
 Total                   57.129             19.824             73.596
 Electronic               0.000              0.000              0.000
 Translational            0.889              2.981             39.566
 Rotational               0.889              2.981             26.747
 Vibrational             55.351             13.862              7.283
 Vibration     1          0.627              1.875              2.394
 Vibration     2          0.764              1.475              0.971
 Vibration     3          0.827              1.317              0.738
 Vibration     4          0.838              1.291              0.706
 Vibration     5          0.946              1.056              0.469

 Optimization completed.
    -- Stationary point found.
 Normal termination of Gaussian 09 at Sat Aug 28 00:56:16 2021.
