 Gaussian 09, Revision E.01,
 Gaussian 09:  EM64L-G09RevE.01 30-Nov-2015

 ------------------------------------------------------------
 #p gen geom=checkpoint b3lyp iop(5/33=1) nosymm extraoverlay
 ------------------------------------------------------------

 -----------
 PY_XYG3_PC2
 -----------
 Structure from the checkpoint file:  "./tmp/PY_XYG3_PC2.chk"
 Charge =  0 Multiplicity = 1

                          Input orientation:
 ---------------------------------------------------------------------
 Center     Atomic      Atomic             Coordinates (Angstroms)
 Number     Number       Type             X           Y           Z
 ---------------------------------------------------------------------
      1          8           0       -0.131289    2.279682   -0.000000
      2          7           0       -1.136972    0.235160   -0.000000
      3          6           0       -0.000200    1.064979   -0.000000
      4          6           0        1.242981    0.323307    0.000000
      5          6           0       -1.118969   -1.124080   -0.000000
      6          6           0        1.261604   -1.036041    0.000000
      7          6           0        0.059823   -1.796115    0.000000
      8          1           0       -2.015504    0.731630   -0.000000
      9          1           0        2.149726    0.909276    0.000000
     10          1           0       -2.081648   -1.614032   -0.000000
     11          1           0        2.211144   -1.556084    0.000000
     12          1           0        0.073407   -2.874073    0.000000
 ---------------------------------------------------------------------

 SCF Done:  E(RB3LYP) =  -323.660169361     A.U. after   14 cycles

 Alpha  occ. eigenvalues --  -19.08352 -14.37992 -10.27802 -10.24455 -10.20620
 Alpha  occ. eigenvalues --  -10.19032 -10.18679  -1.04251  -0.96676  -0.83036
 Alpha  occ. eigenvalues --   -0.76881  -0.66407  -0.64732  -0.57266  -0.51702
 Alpha  occ. eigenvalues --   -0.49791  -0.47218  -0.45035  -0.43492  -0.40039
 Alpha  occ. eigenvalues --   -0.38666  -0.35569  -0.32026  -0.26376  -0.23276
 Alpha virt. eigenvalues --   -0.05711  -0.00333   0.00057   0.02606   0.04034
 Alpha virt. eigenvalues --    0.06609   0.07581   0.11436   0.12335   0.14237
 Alpha virt. eigenvalues --    0.14592   0.15320   0.17236   0.18618   0.18772

 Mulliken charges:
               1
     1  O   -0.482080
     2  N   -0.263041
     3  C    0.420541
     4  C   -0.127310
     5  C    0.180909
     6  C    0.034357
     7  C   -0.131489
     8  H    0.156016
     9  H    0.053931
    10  H    0.057415
    11  H    0.054645
    12  H    0.046107
 Sum of Mulliken charges =  -0.00000

 Dipole moment (field-independent basis, Debye):
    X=             -1.1892    Y=             -4.2548    Z=              0.0000  Tot=              4.4179
 Quadrupole moment (field-independent basis, Debye-Ang):
   XX=            -31.7338   YY=            -48.1952   ZZ=            -43.1702
   XY=              0.1746   XZ=             -0.0000   YZ=              0.0000

 E2(B3LYP) =    -0.1736516195D+01 E(B3LYP) =    -0.32539668555520D+03
 Normal termination of Gaussian 09 at Sun Aug 29 12:37:18 2021.
