 Gaussian 09, Revision E.01,
 Gaussian 09:  EM64L-G09RevE.01 30-Nov-2015

 ---------------------
 #p opt freq B3LYP/gen
 ---------------------

 -------------------------
 PY_H2O_B3LYP_PC2_OPT_FREQ
 -------------------------
 Symbolic Z-matrix:
 Charge =  0 Multiplicity = 1

 SCF Done:  E(RB3LYP) =  -400.146447248     A.U. after   14 cycles
 SCF Done:  E(RB3LYP) =  -400.146449764     A.U. after    7 cycles
 SCF Done:  E(RB3LYP) =  -400.146451968     A.U. after    8 cycles
 SCF Done:  E(RB3LYP) =  -400.146452778     A.U. after    7 cycles
 SCF Done:  E(RB3LYP) =  -400.146453548     A.U. after    7 cycles
 SCF Done:  E(RB3LYP) =  -400.146453906     A.U. after    7 cycles
 SCF Done:  E(RB3LYP) =  -400.146454267     A.U. after    7 cycles
 SCF Done:  E(RB3LYP) =  -400.146454599     A.U. after    7 cycles
 SCF Done:  E(RB3LYP) =  -400.146454726     A.U. after    7 cycles
 Optimization completed.
    -- Stationary point found.
 Normal termination of Gaussian 09 at Fri Aug 27 00:38:31 2021.

 ------------------------------------------------------------------
 #P Geom=AllCheck Guess=TCheck SCRF=Check GenChk RB3LYP/ChkBas Freq
 ------------------------------------------------------------------

 Structure from the checkpoint file:  "PY_H2O_B3LYP_PC2_OPT_FREQ.chk"
 -------------------------
 PY_H2O_B3LYP_PC2_OPT_FREQ
 -------------------------
 Charge =  0 Multiplicity = 1

                         Standard orientation:
 ---------------------------------------------------------------------
 Center     Atomic      Atomic             Coordinates (Angstroms)
 Number     Number       Type             X           Y           Z
 ---------------------------------------------------------------------
      1          8           0        1.260777    1.391649    0.006517
      2          7           0        0.252303   -0.657106    0.012466
      3          6           0        0.211074    0.738090    0.006651
      4          6           0       -1.120033    1.287077    0.000030
      5          6           0       -0.839493   -1.460596    0.007307
      6          6           0       -2.217020    0.479643   -0.004349
      7          6           0       -2.092289   -0.932671   -0.001411
      8          1           0        2.702376    0.275155   -0.045569
      9          1           0       -1.199048    2.363664   -0.003477
     10          1           0       -0.643981   -2.522903    0.009386
     11          1           0       -3.204919    0.922160   -0.010982
     12          1           0       -2.956717   -1.576909   -0.006427
     13          8           0        3.096312   -0.622443   -0.085365
     14          1           0        3.834442   -0.629002    0.527379
     15          1           0        1.191586   -1.055341    0.023845
 ---------------------------------------------------------------------

 SCF Done:  E(RB3LYP) =  -400.146454726     A.U. after    1 cycles

 The electronic state is 1-A.
 Alpha  occ. eigenvalues --  -19.11616 -19.09193 -14.37644 -10.28317 -10.24384
 Alpha  occ. eigenvalues --  -10.20829 -10.19130 -10.18853  -1.04731  -1.00142
 Alpha  occ. eigenvalues --   -0.96758  -0.83150  -0.77040  -0.66596  -0.64851
 Alpha  occ. eigenvalues --   -0.57262  -0.53444  -0.51664  -0.49370  -0.47447
 Alpha  occ. eigenvalues --   -0.45279  -0.44362  -0.40328  -0.39401  -0.37933
 Alpha  occ. eigenvalues --   -0.35850  -0.32130  -0.31416  -0.27323  -0.23634
 Alpha virt. eigenvalues --   -0.05805  -0.00821   0.00780   0.02308   0.03501
 Alpha virt. eigenvalues --    0.05236   0.07339   0.09802   0.11272   0.11624
 Alpha virt. eigenvalues --    0.13414   0.14456   0.15750   0.17523   0.18030

 Mulliken charges:
               1
     1  O   -0.542822
     2  N   -0.242065
     3  C    0.450169
     4  C   -0.116413
     5  C    0.164897
     6  C    0.033981
     7  C   -0.123713
     8  H    0.245030
     9  H    0.054564
    10  H    0.060540
    11  H    0.055240
    12  H    0.046240
    13  O   -0.464961
    14  H    0.206725
    15  H    0.172589
 Sum of Mulliken charges =  -0.00000

 Dipole moment (field-independent basis, Debye):
    X=             -2.4399    Y=             -2.1997    Z=              1.0942  Tot=              3.4625
 Quadrupole moment (field-independent basis, Debye-Ang):
   XX=            -41.5890   YY=            -46.1128   ZZ=            -49.9725
   XY=             -2.1748   XZ=              4.6719   YZ=             -0.8883

  Exact polarizability: 101.247   5.863  84.649   1.060  -0.286  44.316
 Approx polarizability: 153.256  15.478 139.922   1.671  -0.322  66.566

                      1                      2                      3
                      A                      A                      A
 Frequencies --     67.3433               140.6697               182.4322
 Red. masses --      4.7541                 5.8477                 5.1214
 Frc consts  --      0.0127                 0.0682                 0.1004
 IR Inten    --      2.6449                25.4633                 1.3938

                      4                      5                      6
                      A                      A                      A
 Frequencies --    192.9687               228.5153               397.9118
 Red. masses --      4.7932                 1.1591                 3.3320
 Frc consts  --      0.1052                 0.0357                 0.3108
 IR Inten    --      6.1502               127.0366                 1.8876

                      7                      8                      9
                      A                      A                      A
 Frequencies --    451.5587               488.6505               517.3379
 Red. masses --      1.1188                 6.1196                 2.3683
 Frc consts  --      0.1344                 0.8609                 0.3735
 IR Inten    --    118.9836                19.6378                24.7940

                     10                     11                     12
                      A                      A                      A
 Frequencies --    558.7361               627.5636               739.7966
 Red. masses --      7.9699                 6.7234                 1.9883
 Frc consts  --      1.4659                 1.5601                 0.6411
 IR Inten    --      9.7006                 0.2897                20.0835

                     13                     14                     15
                      A                      A                      A
 Frequencies --    751.4565               779.7990               836.7656
 Red. masses --      1.0827                 1.6776                 5.2969
 Frc consts  --      0.3602                 0.6010                 2.1851
 IR Inten    --    223.3755                49.1881                 4.0378

                     16                     17                     18
                      A                      A                      A
 Frequencies --    858.8526               878.5483               967.5534
 Red. masses --      1.2627                 1.5198                 1.2767
 Frc consts  --      0.5488                 0.6912                 0.7042
 IR Inten    --     11.4556                82.1588                 2.4077

                     19                     20                     21
                      A                      A                      A
 Frequencies --   1008.3894              1012.7641              1028.4283
 Red. masses --      5.3481                 1.3010                 2.5150
 Frc consts  --      3.2041                 0.7862                 1.5672
 IR Inten    --     23.7762                 0.0996                 3.8634

                     22                     23                     24
                      A                      A                      A
 Frequencies --   1127.4114              1174.4936              1240.9498
 Red. masses --      1.6501                 1.1588                 1.8982
 Frc consts  --      1.2357                 0.9418                 1.7223
 IR Inten    --      7.2807                16.5988                 0.5121

                     25                     26                     27
                      A                      A                      A
 Frequencies --   1263.9191              1404.0035              1473.6171
 Red. masses --      1.8175                 1.5294                 2.0402
 Frc consts  --      1.7107                 1.7763                 2.6103
 IR Inten    --     25.9259                 4.4823                24.7562

                     28                     29                     30
                      A                      A                      A
 Frequencies --   1503.2251              1583.7941              1634.3857
 Red. masses --      2.4437                 4.8303                 1.2799
 Frc consts  --      3.2534                 7.1387                 2.0143
 IR Inten    --     12.0192                26.1873               346.3066

                     31                     32                     33
                      A                      A                      A
 Frequencies --   1662.9181              1726.3586              3174.7086
 Red. masses --      2.7495                 3.4952                 1.0892
 Frc consts  --      4.4797                 6.1374                 6.4679
 IR Inten    --     27.3520               512.6951                 9.9585

                     34                     35                     36
                      A                      A                      A
 Frequencies --   3205.1706              3216.3079              3228.5172
 Red. masses --      1.0902                 1.0933                 1.0970
 Frc consts  --      6.5987                 6.6635                 6.7371
 IR Inten    --      1.1052                 1.7302                 2.8740

                     37                     38                     39
                      A                      A                      A
 Frequencies --   3389.8498              3470.3642              3881.6565
 Red. masses --      1.0802                 1.0650                 1.0680
 Frc consts  --      7.3132                 7.5571                 9.4806
 IR Inten    --    115.5098               890.2117                71.7356

 - Thermochemistry -
 -------------------
 Temperature   298.150 Kelvin.  Pressure   1.00000 Atm.
 Atom     1 has atomic number  8 and mass  15.99491

 Molecular mass:   113.04768 amu.
 Principal axes and moments of inertia in atomic units:
                           1         2         3
     Eigenvalues --   449.117921286.598881732.93262
           X            0.99993  -0.01023   0.00548
           Y            0.01024   0.99994  -0.00336
           Z           -0.00545   0.00342   0.99998
 This molecule is an asymmetric top.
 Rotational symmetry number  1.
 Warning -- assumption of classical behavior for rotation
           may cause significant error
 Rotational temperatures (Kelvin)      0.19285     0.06732     0.04998
 Rotational constants (GHZ):           4.01841     1.40272     1.04144
 Zero-point vibrational energy     311493.8 (Joules/Mol)
                                   74.44880 (Kcal/Mol)
 Warning -- explicit consideration of  10 degrees of freedom as
           vibrations may cause significant error
 Vibrational temperatures:     96.89   202.39   262.48   277.64   328.78
          (Kelvin)            572.51   649.69   703.06   744.33   803.90
                              902.92  1064.40  1081.18  1121.96  1203.92
                             1235.70  1264.03  1392.09  1450.85  1457.14
                             1479.68  1622.09  1689.83  1785.45  1818.50
                             2020.05  2120.20  2162.80  2278.72  2351.51
                             2392.57  2483.84  4567.69  4611.52  4627.54
                             4645.11  4877.23  4993.07  5584.83

 Zero-point correction=                           0.118642 (Hartree/Particle)
 Thermal correction to Energy=                    0.126666
 Thermal correction to Enthalpy=                  0.127610
 Thermal correction to Gibbs Free Energy=         0.085927
 Sum of electronic and zero-point Energies=           -400.027813
 Sum of electronic and thermal Energies=              -400.019788
 Sum of electronic and thermal Enthalpies=            -400.018844
 Sum of electronic and thermal Free Energies=         -400.060528

                     E (Thermal)             CV                S
                      KCal/Mol        Cal/Mol-Kelvin    Cal/Mol-Kelvin
 Total                   79.484             29.380             87.730
 Electronic               0.000              0.000              0.000
 Translational            0.889              2.981             40.084
 Rotational               0.889              2.981             28.395
 Vibrational             77.707             23.418             19.251
 Vibration     1          0.598              1.970              4.230
 Vibration     2          0.615              1.913              2.795
 Vibration     3          0.630              1.864              2.303
 Vibration     4          0.635              1.850              2.199
 Vibration     5          0.651              1.798              1.891
 Vibration     6          0.764              1.475              0.970
 Vibration     7          0.810              1.357              0.791
 Vibration     8          0.845              1.275              0.687
 Vibration     9          0.872              1.212              0.616
 Vibration    10          0.914              1.121              0.526

 Normal termination of Gaussian 09 at Fri Aug 27 00:39:34 2021.
