 Gaussian 09, Revision E.01,
 Gaussian 09:  EM64L-G09RevE.01 30-Nov-2015

 ----------------------------------------------------------
 #p opt freq b3lyp/gen SCF(novaracc,noincfock) int=acc2e=12
 ----------------------------------------------------------

 --------------------------
 PY_aug-pc-3_B3LYP_OPT_FREQ
 --------------------------
 Symbolic Z-matrix:
 Charge =  0 Multiplicity = 1

 SCF Done:  E(RB3LYP) =  -323.671719724     A.U. after   12 cycles
 SCF Done:  E(RB3LYP) =  -323.675670731     A.U. after   10 cycles
 SCF Done:  E(RB3LYP) =  -323.676195640     A.U. after    9 cycles
 SCF Done:  E(RB3LYP) =  -323.676281418     A.U. after    9 cycles
 SCF Done:  E(RB3LYP) =  -323.676287943     A.U. after    7 cycles
 Optimization completed.
    -- Stationary point found.
 Normal termination of Gaussian 09 at Thu Aug 26 22:36:33 2021.

 ------------------------------------------------------------------
 #P Geom=AllCheck Guess=TCheck SCRF=Check GenChk RB3LYP/ChkBas Freq
 ------------------------------------------------------------------

 Structure from the checkpoint file:  "PY_aug-pc-3_B3LYP_OPT_FREQ.chk"
 --------------------------
 PY_aug-pc-3_B3LYP_OPT_FREQ
 --------------------------
 Charge =  0 Multiplicity = 1

                         Standard orientation:
 ---------------------------------------------------------------------
 Center     Atomic      Atomic             Coordinates (Angstroms)
 Number     Number       Type             X           Y           Z
 ---------------------------------------------------------------------
      1          8           0       -0.130421    2.277167    0.000000
      2          7           0       -1.136405    0.234338    0.000000
      3          6           0        0.000000    1.062535    0.000000
      4          6           0        1.242991    0.321505    0.000000
      5          6           0       -1.119416   -1.124389    0.000000
      6          6           0        1.261182   -1.037845    0.000000
      7          6           0        0.059173   -1.796883    0.000000
      8          1           0       -2.014251    0.731215    0.000000
      9          1           0        2.149447    0.907236    0.000000
     10          1           0       -2.081991   -1.613415    0.000000
     11          1           0        2.210171   -1.557906    0.000000
     12          1           0        0.071254   -2.874371    0.000000
 ---------------------------------------------------------------------

 SCF Done:  E(RB3LYP) =  -323.676287943     A.U. after    1 cycles

 The electronic state is 1-A'.
 Alpha  occ. eigenvalues --  -19.08603 -14.38202 -10.27861 -10.24507 -10.20769
 Alpha  occ. eigenvalues --  -10.19151 -10.18827  -1.04230  -0.96654  -0.83024
 Alpha  occ. eigenvalues --   -0.76855  -0.66403  -0.64727  -0.57257  -0.51696
 Alpha  occ. eigenvalues --   -0.49787  -0.47228  -0.45048  -0.43508  -0.40051
 Alpha  occ. eigenvalues --   -0.38680  -0.35574  -0.32035  -0.26407  -0.23291
 Alpha virt. eigenvalues --   -0.05791  -0.02228  -0.00677  -0.00520   0.00331
 Alpha virt. eigenvalues --    0.01029   0.01983   0.02024   0.02886   0.03029
 Alpha virt. eigenvalues --    0.03289   0.03469   0.04239   0.04347   0.04716

 Mulliken charges:
               1
     1  O   -0.640371
     2  N   -0.194346
     3  C    0.427925
     4  C    0.054907
     5  C    0.117445
     6  C   -0.287868
     7  C    0.010029
     8  H    0.288027
     9  H    0.083408
    10  H    0.086258
    11  H    0.017989
    12  H    0.036597
 Sum of Mulliken charges =   0.00000

 Dipole moment (field-independent basis, Debye):
    X=             -1.1295    Y=             -4.2175    Z=             -0.0000  Tot=              4.3661
 Quadrupole moment (field-independent basis, Debye-Ang):
   XX=            -31.8243   YY=            -48.1790   ZZ=            -43.0559
   XY=              0.1699   XZ=              0.0000   YZ=             -0.0000

  Exact polarizability:  77.435   0.283  93.569  -0.000   0.000  43.031
 Approx polarizability: 124.120   0.388 156.958   0.000   0.000  64.558

                      1                      2                      3
                     A"                     A"                     A'
 Frequencies --    173.1862               393.1637               459.8132
 Red. masses --      5.7503                 3.2408                 6.1297
 Frc consts  --      0.1016                 0.2952                 0.7636
 IR Inten    --      3.0898                 1.1889                 6.3792

                      4                      5                      6
                     A"                     A'                     A'
 Frequencies --    494.8326               550.5137               620.4413
 Red. masses --      2.0558                 7.9657                 6.7751
 Frc consts  --      0.2966                 1.4224                 1.5366
 IR Inten    --     35.9081                 7.4731                 0.6234

                      7                      8                      9
                     A"                     A"                     A"
 Frequencies --    706.5554               744.7159               778.8681
 Red. masses --      1.3567                 1.6185                 1.8672
 Frc consts  --      0.3990                 0.5289                 0.6674
 IR Inten    --     45.0288                 2.5466                63.9712

                     10                     11                     12
                     A'                     A"                     A"
 Frequencies --    819.8640               864.9072               962.4321
 Red. masses --      5.2437                 1.7125                 1.3127
 Frc consts  --      2.0767                 0.7548                 0.7164
 IR Inten    --      9.6416                16.5566                 0.0348

                     13                     14                     15
                     A'                     A'                     A"
 Frequencies --   1006.0293              1019.4894              1020.8014
 Red. masses --      4.7186                 2.8585                 1.3089
 Frc consts  --      2.8137                 1.7505                 0.8036
 IR Inten    --     13.1262                 5.4415                 0.1158

                     16                     17                     18
                     A'                     A'                     A'
 Frequencies --   1112.2313              1168.2145              1225.7574
 Red. masses --      1.6951                 1.2754                 1.4124
 Frc consts  --      1.2355                 1.0255                 1.2503
 IR Inten    --     16.0964                20.8122                 5.7653

                     19                     20                     21
                     A'                     A'                     A'
 Frequencies --   1240.4789              1393.2787              1457.2979
 Red. masses --      1.8259                 1.4733                 2.0549
 Frc consts  --      1.6554                 1.6851                 2.5712
 IR Inten    --     24.0114                 3.0134                 7.9381

                     22                     23                     24
                     A'                     A'                     A'
 Frequencies --   1493.6401              1579.9681              1660.4748
 Red. masses --      2.2531                 4.8247                 4.4099
 Frc consts  --      2.9616                 7.0961                 7.1638
 IR Inten    --      1.2442                48.3391                47.4498

                     25                     26                     27
                     A'                     A'                     A'
 Frequencies --   1740.3945              3168.0438              3199.5039
 Red. masses --      7.6247                 1.0892                 1.0903
 Frc consts  --     13.6073                 6.4406                 6.5762
 IR Inten    --    660.4104                 9.8431                 1.4061

                     28                     29                     30
                     A'                     A'                     A'
 Frequencies --   3208.2817              3224.1805              3589.9594
 Red. masses --      1.0934                 1.0967                 1.0778
 Frc consts  --      6.6307                 6.7170                 8.1838
 IR Inten    --      1.6879                 2.8398                59.6538

 - Thermochemistry -
 -------------------
 Temperature   298.150 Kelvin.  Pressure   1.00000 Atm.
 Atom     1 has atomic number  8 and mass  15.99491

 Molecular mass:    95.03711 amu.
 Principal axes and moments of inertia in atomic units:
                           1         2         3
     Eigenvalues --   317.06794 643.57712 960.64507
           X           -0.05870   0.99828   0.00000
           Y            0.99828   0.05870   0.00000
           Z            0.00000   0.00000   1.00000
 This molecule is an asymmetric top.
 Rotational symmetry number  1.
 Rotational temperatures (Kelvin)      0.27317     0.13458     0.09016
 Rotational constants (GHZ):           5.69197     2.80423     1.87868
 Zero-point vibrational energy     245696.9 (Joules/Mol)
                                   58.72297 (Kcal/Mol)
 Warning -- explicit consideration of   6 degrees of freedom as
           vibrations may cause significant error
 Vibrational temperatures:    249.18   565.67   661.57   711.95   792.07
          (Kelvin)            892.68  1016.57  1071.48  1120.62  1179.60
                             1244.41  1384.72  1447.45  1466.82  1468.70
                             1600.25  1680.80  1763.59  1784.77  2004.61
                             2096.72  2149.01  2273.22  2389.05  2504.04
                             4558.10  4603.37  4616.00  4638.87  5165.14

 Zero-point correction=                           0.093581 (Hartree/Particle)
 Thermal correction to Energy=                    0.098826
 Thermal correction to Enthalpy=                  0.099770
 Thermal correction to Gibbs Free Energy=         0.064670
 Sum of electronic and zero-point Energies=           -323.582707
 Sum of electronic and thermal Energies=              -323.577462
 Sum of electronic and thermal Enthalpies=            -323.576518
 Sum of electronic and thermal Free Energies=         -323.611618

                     E (Thermal)             CV                S
                      KCal/Mol        Cal/Mol-Kelvin    Cal/Mol-Kelvin
 Total                   62.014             20.237             73.874
 Electronic               0.000              0.000              0.000
 Translational            0.889              2.981             39.566
 Rotational               0.889              2.981             26.775
 Vibrational             60.237             14.275              7.533
 Vibration     1          0.627              1.875              2.401
 Vibration     2          0.760              1.485              0.988
 Vibration     3          0.818              1.339              0.767
 Vibration     4          0.850              1.261              0.671
 Vibration     5          0.906              1.139              0.543
 Vibration     6          0.980              0.989              0.416

 Optimization completed.
    -- Stationary point found.
 Normal termination of Gaussian 09 at Thu Aug 26 23:27:27 2021.
