 Gaussian 09, Revision E.01,
 Gaussian 09:  EM64L-G09RevE.01 30-Nov-2015

 --------------------
 # opt freq b3lyp/gen
 --------------------

 --------------------------
 PY_aug-pc-2_B3LYP_OPT_FREQ
 --------------------------
 Symbolic Z-matrix:
 Charge =  0 Multiplicity = 1

 SCF Done:  E(RB3LYP) =  -323.657222293     A.U. after   14 cycles
 SCF Done:  E(RB3LYP) =  -323.661160228     A.U. after   12 cycles
 SCF Done:  E(RB3LYP) =  -323.661687975     A.U. after   12 cycles
 SCF Done:  E(RB3LYP) =  -323.661772908     A.U. after   11 cycles
 SCF Done:  E(RB3LYP) =  -323.661779559     A.U. after    9 cycles
 Optimization completed.
    -- Stationary point found.
 Normal termination of Gaussian 09 at Thu Aug 26 17:00:32 2021.

 ------------------------------------------------------------------
 #N Geom=AllCheck Guess=TCheck SCRF=Check GenChk RB3LYP/ChkBas Freq
 ------------------------------------------------------------------

 Structure from the checkpoint file:  "PY_aug-pc-2_B3LYP_OPT_FREQ.chk"
 --------------------------
 PY_aug-pc-2_B3LYP_OPT_FREQ
 --------------------------
 Charge =  0 Multiplicity = 1

                         Standard orientation:
 ---------------------------------------------------------------------
 Center     Atomic      Atomic             Coordinates (Angstroms)
 Number     Number       Type             X           Y           Z
 ---------------------------------------------------------------------
      1          8           0       -0.131051    2.278214    0.000000
      2          7           0       -1.136619    0.234125    0.000000
      3          6           0        0.000000    1.062660    0.000000
      4          6           0        1.243178    0.321762   -0.000000
      5          6           0       -1.119465   -1.125056    0.000000
      6          6           0        1.261585   -1.037957   -0.000000
      7          6           0        0.059556   -1.797419   -0.000000
      8          1           0       -2.014844    0.731208    0.000000
      9          1           0        2.149856    0.907988   -0.000000
     10          1           0       -2.082426   -1.614263    0.000000
     11          1           0        2.211073   -1.558095   -0.000000
     12          1           0        0.071956   -2.875366   -0.000000
 ---------------------------------------------------------------------

 SCF Done:  E(RB3LYP) =  -323.661779559     A.U. after    1 cycles

 The electronic state is 1-A'.
 Alpha  occ. eigenvalues --  -19.08421 -14.38080 -10.27877 -10.24491 -10.20702
 Alpha  occ. eigenvalues --  -10.19093 -10.18763  -1.04237  -0.96667  -0.83039
 Alpha  occ. eigenvalues --   -0.76877  -0.66414  -0.64738  -0.57256  -0.51701
 Alpha  occ. eigenvalues --   -0.49790  -0.47227  -0.45038  -0.43507  -0.40048
 Alpha  occ. eigenvalues --   -0.38683  -0.35563  -0.32038  -0.26402  -0.23296
 Alpha virt. eigenvalues --   -0.05805  -0.02192  -0.00678  -0.00484   0.00417
 Alpha virt. eigenvalues --    0.01745   0.02165   0.02347   0.03420   0.04183
 Alpha virt. eigenvalues --    0.04396   0.04875   0.05009   0.05223   0.05760

 Mulliken charges:
               1
     1  O   -0.832740
     2  N   -0.319475
     3  C    1.704591
     4  C   -0.959516
     5  C    0.253823
     6  C    0.203084
     7  C   -0.366330
     8  H    0.135296
     9  H    0.022609
    10  H   -0.107647
    11  H    0.165313
    12  H    0.100993
 Sum of Mulliken charges =   0.00000

 Dipole moment (field-independent basis, Debye):
    X=             -1.1292    Y=             -4.2277    Z=              0.0000  Tot=              4.3759
 Quadrupole moment (field-independent basis, Debye-Ang):
   XX=            -31.8223   YY=            -48.2072   ZZ=            -43.0905
   XY=              0.1758   XZ=              0.0000   YZ=             -0.0000

  Exact polarizability:  77.398   0.276  93.583   0.001  -0.000  42.984
 Approx polarizability: 124.041   0.372 157.054  -0.000   0.000  64.413

                      1                      2                      3
                     A"                     A"                     A'
 Frequencies --    173.4619               393.3648               459.2439
 Red. masses --      5.7466                 3.2377                 6.1319
 Frc consts  --      0.1019                 0.2952                 0.7620
 IR Inten    --      3.1098                 1.1941                 6.3915

                      4                      5                      6
                     A"                     A'                     A'
 Frequencies --    494.8461               550.2474               620.2368
 Red. masses --      2.0578                 7.9651                 6.7730
 Frc consts  --      0.2969                 1.4209                 1.5351
 IR Inten    --     35.8146                 7.4702                 0.6171

                      7                      8                      9
                     A"                     A"                     A"
 Frequencies --    706.9958               744.5052               778.6002
 Red. masses --      1.3578                 1.6143                 1.8635
 Frc consts  --      0.3999                 0.5272                 0.6656
 IR Inten    --     45.2913                 2.4685                64.0773

                     10                     11                     12
                     A'                     A"                     A"
 Frequencies --    819.9975               864.6777               961.5529
 Red. masses --      5.2397                 1.7161                 1.3130
 Frc consts  --      2.0758                 0.7559                 0.7153
 IR Inten    --      9.5582                16.6677                 0.0383

                     13                     14                     15
                     A'                     A'                     A"
 Frequencies --   1005.2002              1019.4650              1020.1424
 Red. masses --      4.7881                 2.8317                 1.3100
 Frc consts  --      2.8505                 1.7340                 0.8033
 IR Inten    --     13.3395                 5.1523                 0.1187

                     16                     17                     18
                     A'                     A'                     A'
 Frequencies --   1111.8488              1167.4803              1225.1908
 Red. masses --      1.6945                 1.2742                 1.4029
 Frc consts  --      1.2342                 1.0233                 1.2408
 IR Inten    --     16.1733                20.7009                 5.8883

                     19                     20                     21
                     A'                     A'                     A'
 Frequencies --   1240.2210              1392.1255              1456.0424
 Red. masses --      1.8343                 1.4732                 2.0536
 Frc consts  --      1.6623                 1.6822                 2.5651
 IR Inten    --     23.9327                 2.9730                 7.9299

                     22                     23                     24
                     A'                     A'                     A'
 Frequencies --   1492.3714              1579.4532              1659.8186
 Red. masses --      2.2628                 4.8627                 4.4267
 Frc consts  --      2.9693                 7.1473                 7.1853
 IR Inten    --      1.2317                48.2522                48.6202

                     25                     26                     27
                     A'                     A'                     A'
 Frequencies --   1738.6557              3172.0084              3203.3614
 Red. masses --      7.6069                 1.0891                 1.0903
 Frc consts  --     13.5483                 6.4562                 6.5920
 IR Inten    --    658.6739                 9.7532                 1.4107

                     28                     29                     30
                     A'                     A'                     A'
 Frequencies --   3212.5782              3228.6942              3592.8029
 Red. masses --      1.0933                 1.0966                 1.0778
 Frc consts  --      6.6483                 6.7354                 8.1967
 IR Inten    --      1.6688                 2.7977                59.8027

 - Thermochemistry -
 -------------------
 Temperature   298.150 Kelvin.  Pressure   1.00000 Atm.
 Atom     1 has atomic number  8 and mass  15.99491

 Molecular mass:    95.03711 amu.
 Principal axes and moments of inertia in atomic units:
                           1         2         3
     Eigenvalues --   317.19936 644.06548 961.26484
           X           -0.05889   0.99826   0.00000
           Y            0.99826   0.05889   0.00000
           Z           -0.00000   0.00000   1.00000
 This molecule is an asymmetric top.
 Rotational symmetry number  1.
 Rotational temperatures (Kelvin)      0.27306     0.13448     0.09010
 Rotational constants (GHZ):           5.68961     2.80211     1.87747
 Zero-point vibrational energy     245744.0 (Joules/Mol)
                                   58.73423 (Kcal/Mol)
 Warning -- explicit consideration of   6 degrees of freedom as
           vibrations may cause significant error
 Vibrational temperatures:    249.57   565.96   660.75   711.97   791.68
          (Kelvin)            892.38  1017.21  1071.18  1120.23  1179.79
                             1244.08  1383.46  1446.26  1466.78  1467.76
                             1599.70  1679.74  1762.77  1784.40  2002.96
                             2094.92  2147.19  2272.48  2388.11  2501.53
                             4563.81  4608.92  4622.18  4645.37  5169.24

 Zero-point correction=                           0.093599 (Hartree/Particle)
 Thermal correction to Energy=                    0.098845
 Thermal correction to Enthalpy=                  0.099789
 Thermal correction to Gibbs Free Energy=         0.064688
 Sum of electronic and zero-point Energies=           -323.568181
 Sum of electronic and thermal Energies=              -323.562935
 Sum of electronic and thermal Enthalpies=            -323.561991
 Sum of electronic and thermal Free Energies=         -323.597092

                     E (Thermal)             CV                S
                      KCal/Mol        Cal/Mol-Kelvin    Cal/Mol-Kelvin
 Total                   62.026             20.244             73.876
 Electronic               0.000              0.000              0.000
 Translational            0.889              2.981             39.566
 Rotational               0.889              2.981             26.776
 Vibrational             60.248             14.282              7.533
 Vibration     1          0.627              1.875              2.398
 Vibration     2          0.761              1.484              0.987
 Vibration     3          0.817              1.340              0.768
 Vibration     4          0.850              1.261              0.671
 Vibration     5          0.906              1.139              0.544
 Vibration     6          0.980              0.989              0.416

 Optimization completed.
    -- Stationary point found.
 Normal termination of Gaussian 09 at Thu Aug 26 17:03:05 2021.
