 Gaussian 09, Revision E.01,
 Gaussian 09:  EM64L-G09RevE.01 30-Nov-2015

 --------------------
 # opt freq b3lyp/gen
 --------------------

 ----------------------
 PY_pc-3_B3LYP_OPT_FREQ
 ----------------------
 Symbolic Z-matrix:
 Charge =  0 Multiplicity = 1

 SCF Done:  E(RB3LYP) =  -323.671614816     A.U. after   14 cycles
 SCF Done:  E(RB3LYP) =  -323.675566001     A.U. after   13 cycles
 SCF Done:  E(RB3LYP) =  -323.676090655     A.U. after   15 cycles
 SCF Done:  E(RB3LYP) =  -323.676176486     A.U. after    9 cycles
 SCF Done:  E(RB3LYP) =  -323.676183001     A.U. after    7 cycles
 Optimization completed.
    -- Stationary point found.
 Normal termination of Gaussian 09 at Thu Aug 26 16:47:51 2021.

 ------------------------------------------------------------------
 #N Geom=AllCheck Guess=TCheck SCRF=Check GenChk RB3LYP/ChkBas Freq
 ------------------------------------------------------------------

 Structure from the checkpoint file:  "PY_pc-3_B3LYP_OPT_FREQ.chk"
 ----------------------
 PY_pc-3_B3LYP_OPT_FREQ
 ----------------------
 Charge =  0 Multiplicity = 1

                         Standard orientation:
 ---------------------------------------------------------------------
 Center     Atomic      Atomic             Coordinates (Angstroms)
 Number     Number       Type             X           Y           Z
 ---------------------------------------------------------------------
      1          8           0       -0.130404    2.277168    0.000000
      2          7           0       -1.136393    0.234327    0.000000
      3          6           0        0.000000    1.062569    0.000000
      4          6           0        1.242983    0.321489   -0.000000
      5          6           0       -1.119409   -1.124409    0.000000
      6          6           0        1.261163   -1.037829   -0.000000
      7          6           0        0.059154   -1.796882   -0.000000
      8          1           0       -2.014224    0.731208    0.000000
      9          1           0        2.149428    0.907225   -0.000000
     10          1           0       -2.081988   -1.613427    0.000000
     11          1           0        2.210140   -1.557900   -0.000000
     12          1           0        0.071287   -2.874366   -0.000000
 ---------------------------------------------------------------------

 SCF Done:  E(RB3LYP) =  -323.676183001     A.U. after    1 cycles

 The electronic state is 1-A'.
 Alpha  occ. eigenvalues --  -19.08598 -14.38200 -10.27859 -10.24508 -10.20768
 Alpha  occ. eigenvalues --  -10.19151 -10.18825  -1.04228  -0.96653  -0.83023
 Alpha  occ. eigenvalues --   -0.76854  -0.66401  -0.64725  -0.57257  -0.51695
 Alpha  occ. eigenvalues --   -0.49787  -0.47227  -0.45045  -0.43506  -0.40049
 Alpha  occ. eigenvalues --   -0.38678  -0.35572  -0.32032  -0.26403  -0.23288
 Alpha virt. eigenvalues --   -0.05777  -0.01266  -0.00562   0.00990   0.02174
 Alpha virt. eigenvalues --    0.04537   0.04829   0.05516   0.06575   0.08557
 Alpha virt. eigenvalues --    0.09351   0.09860   0.09942   0.11262   0.12173

 Mulliken charges:
               1
     1  O   -0.567678
     2  N   -0.308985
     3  C    0.431852
     4  C   -0.021215
     5  C    0.118848
     6  C   -0.064447
     7  C   -0.027277
     8  H    0.198278
     9  H    0.075727
    10  H    0.054250
    11  H    0.053682
    12  H    0.056965
 Sum of Mulliken charges =  -0.00000

 Dipole moment (field-independent basis, Debye):
    X=             -1.1374    Y=             -4.2254    Z=             -0.0000  Tot=              4.3759
 Quadrupole moment (field-independent basis, Debye-Ang):
   XX=            -31.8064   YY=            -48.1866   ZZ=            -43.0679
   XY=              0.1733   XZ=              0.0000   YZ=             -0.0000

  Exact polarizability:  76.498   0.133  93.008   0.000   0.000  42.359
 Approx polarizability: 122.848   0.147 156.301  -0.000   0.000  63.808

                      1                      2                      3
                     A"                     A"                     A'
 Frequencies --    172.9102               392.7938               459.8185
 Red. masses --      5.7584                 3.2472                 6.1292
 Frc consts  --      0.1014                 0.2952                 0.7635
 IR Inten    --      3.0874                 1.2161                 6.3783

                      4                      5                      6
                     A"                     A'                     A'
 Frequencies --    494.3029               550.5170               620.4463
 Red. masses --      2.0538                 7.9653                 6.7752
 Frc consts  --      0.2957                 1.4223                 1.5367
 IR Inten    --     36.2850                 7.4143                 0.6534

                      7                      8                      9
                     A"                     A"                     A"
 Frequencies --    705.1694               743.9446               778.1854
 Red. masses --      1.3495                 1.6356                 1.8573
 Frc consts  --      0.3954                 0.5333                 0.6627
 IR Inten    --     44.5279                 2.9684                63.7996

                     10                     11                     12
                     A'                     A"                     A"
 Frequencies --    819.8474               863.8897               960.4737
 Red. masses --      5.2433                 1.7181                 1.3113
 Frc consts  --      2.0764                 0.7555                 0.7127
 IR Inten    --      9.6222                16.8440                 0.0341

                     13                     14                     15
                     A'                     A"                     A'
 Frequencies --   1005.9995              1018.3916              1019.4737
 Red. masses --      4.7162                 1.3069                 2.8599
 Frc consts  --      2.8122                 0.7986                 1.7512
 IR Inten    --     13.1728                 0.1314                 5.4737

                     16                     17                     18
                     A'                     A'                     A'
 Frequencies --   1112.2251              1168.2239              1225.7329
 Red. masses --      1.6953                 1.2761                 1.4118
 Frc consts  --      1.2356                 1.0261                 1.2497
 IR Inten    --     16.1985                20.7818                 5.7728

                     19                     20                     21
                     A'                     A'                     A'
 Frequencies --   1240.4375              1393.2500              1457.2232
 Red. masses --      1.8245                 1.4733                 2.0548
 Frc consts  --      1.6540                 1.6850                 2.5708
 IR Inten    --     23.9320                 3.0926                 7.9920

                     22                     23                     24
                     A'                     A'                     A'
 Frequencies --   1493.6324              1579.9952              1660.5459
 Red. masses --      2.2526                 4.8288                 4.4114
 Frc consts  --      2.9610                 7.1024                 7.1669
 IR Inten    --      1.2706                48.7898                47.7117

                     25                     26                     27
                     A'                     A'                     A'
 Frequencies --   1740.5602              3168.0113              3199.4348
 Red. masses --      7.6301                 1.0892                 1.0903
 Frc consts  --     13.6194                 6.4405                 6.5759
 IR Inten    --    661.3611                 9.9048                 1.4411

                     28                     29                     30
                     A'                     A'                     A'
 Frequencies --   3208.2986              3224.1525              3590.0904
 Red. masses --      1.0934                 1.0967                 1.0778
 Frc consts  --      6.6308                 6.7168                 8.1844
 IR Inten    --      1.7111                 2.8761                59.8436

 - Thermochemistry -
 -------------------
 Temperature   298.150 Kelvin.  Pressure   1.00000 Atm.
 Atom     1 has atomic number  8 and mass  15.99491

 Molecular mass:    95.03711 amu.
 Principal axes and moments of inertia in atomic units:
                           1         2         3
     Eigenvalues --   317.06219 643.57914 960.64133
           X           -0.05868   0.99828   0.00000
           Y            0.99828   0.05868   0.00000
           Z           -0.00000   0.00000   1.00000
 This molecule is an asymmetric top.
 Rotational symmetry number  1.
 Rotational temperatures (Kelvin)      0.27318     0.13458     0.09016
 Rotational constants (GHZ):           5.69207     2.80423     1.87868
 Zero-point vibrational energy     245641.1 (Joules/Mol)
                                   58.70962 (Kcal/Mol)
 Warning -- explicit consideration of   6 degrees of freedom as
           vibrations may cause significant error
 Vibrational temperatures:    248.78   565.14   661.58   711.19   792.07
          (Kelvin)            892.68  1014.58  1070.37  1119.63  1179.58
                             1242.94  1381.91  1447.41  1465.24  1466.79
                             1600.24  1680.81  1763.55  1784.71  2004.57
                             2096.62  2149.00  2273.26  2389.15  2504.27
                             4558.06  4603.27  4616.02  4638.83  5165.33

 Zero-point correction=                           0.093560 (Hartree/Particle)
 Thermal correction to Energy=                    0.098808
 Thermal correction to Enthalpy=                  0.099752
 Thermal correction to Gibbs Free Energy=         0.064647
 Sum of electronic and zero-point Energies=           -323.582623
 Sum of electronic and thermal Energies=              -323.577375
 Sum of electronic and thermal Enthalpies=            -323.576431
 Sum of electronic and thermal Free Energies=         -323.611536

                     E (Thermal)             CV                S
                      KCal/Mol        Cal/Mol-Kelvin    Cal/Mol-Kelvin
 Total                   62.003             20.251             73.885
 Electronic               0.000              0.000              0.000
 Translational            0.889              2.981             39.566
 Rotational               0.889              2.981             26.775
 Vibrational             60.225             14.289              7.544
 Vibration     1          0.626              1.876              2.404
 Vibration     2          0.760              1.486              0.990
 Vibration     3          0.818              1.339              0.767
 Vibration     4          0.850              1.263              0.673
 Vibration     5          0.906              1.139              0.543
 Vibration     6          0.981              0.989              0.416

 Optimization completed.
    -- Stationary point found.
 Normal termination of Gaussian 09 at Thu Aug 26 16:56:47 2021.
