 Gaussian 09, Revision E.01,
 Gaussian 09:  EM64L-G09RevE.01 30-Nov-2015

 --------------------
 # opt freq b3lyp/gen
 --------------------

 ----------------------
 PY_pc-1_B3LYP_OPT_FREQ
 ----------------------
 Symbolic Z-matrix:
 Charge =  0 Multiplicity = 1

 SCF Done:  E(RB3LYP) =  -323.468199282     A.U. after   15 cycles
 SCF Done:  E(RB3LYP) =  -323.472395957     A.U. after   13 cycles
 SCF Done:  E(RB3LYP) =  -323.472942477     A.U. after   12 cycles
 SCF Done:  E(RB3LYP) =  -323.473024247     A.U. after   10 cycles
 SCF Done:  E(RB3LYP) =  -323.473030372     A.U. after    9 cycles
 Optimization completed.
    -- Stationary point found.
 Normal termination of Gaussian 09 at Thu Aug 26 16:34:06 2021.

 ------------------------------------------------------------------
 #N Geom=AllCheck Guess=TCheck SCRF=Check GenChk RB3LYP/ChkBas Freq
 ------------------------------------------------------------------

 Structure from the checkpoint file:  "PY_pc-1_B3LYP_OPT_FREQ.chk"
 ----------------------
 PY_pc-1_B3LYP_OPT_FREQ
 ----------------------
 Charge =  0 Multiplicity = 1

                         Standard orientation:
 ---------------------------------------------------------------------
 Center     Atomic      Atomic             Coordinates (Angstroms)
 Number     Number       Type             X           Y           Z
 ---------------------------------------------------------------------
      1          8           0       -0.131043    2.287044    0.000000
      2          7           0       -1.140412    0.233995    0.000000
      3          6           0        0.000000    1.069591    0.000000
      4          6           0        1.246120    0.322594    0.000000
      5          6           0       -1.123569   -1.129873    0.000000
      6          6           0        1.266265   -1.042015    0.000000
      7          6           0        0.060329   -1.804555    0.000000
      8          1           0       -2.024643    0.733759    0.000000
      9          1           0        2.158919    0.912879    0.000000
     10          1           0       -2.093883   -1.621097    0.000000
     11          1           0        2.222737   -1.564333    0.000000
     12          1           0        0.073230   -2.889982    0.000000
 ---------------------------------------------------------------------

 SCF Done:  E(RB3LYP) =  -323.473030372     A.U. after    1 cycles

 The electronic state is 1-A'.
 Alpha  occ. eigenvalues --  -19.08416 -14.38207 -10.28330 -10.25061 -10.21159
 Alpha  occ. eigenvalues --  -10.19576 -10.19113  -1.04492  -0.96906  -0.83178
 Alpha  occ. eigenvalues --   -0.77100  -0.66464  -0.64815  -0.57178  -0.51707
 Alpha  occ. eigenvalues --   -0.49803  -0.47211  -0.44877  -0.43477  -0.40042
 Alpha  occ. eigenvalues --   -0.38701  -0.35472  -0.31932  -0.26257  -0.23147
 Alpha virt. eigenvalues --   -0.05550  -0.00010   0.02278   0.05729   0.07537
 Alpha virt. eigenvalues --    0.10216   0.11543   0.12373   0.18872   0.22093
 Alpha virt. eigenvalues --    0.24465   0.26152   0.28725   0.35595   0.38206

 Mulliken charges:
               1
     1  O   -0.420416
     2  N   -0.444997
     3  C    0.440451
     4  C   -0.153314
     5  C    0.223400
     6  C    0.032134
     7  C   -0.174303
     8  H    0.181117
     9  H    0.080130
    10  H    0.095346
    11  H    0.072607
    12  H    0.067844
 Sum of Mulliken charges =  -0.00000

 Dipole moment (field-independent basis, Debye):
    X=             -1.2505    Y=             -4.0998    Z=              0.0000  Tot=              4.2863
 Quadrupole moment (field-independent basis, Debye-Ang):
   XX=            -31.8513   YY=            -47.6283   ZZ=            -43.5761
   XY=              0.1662   XZ=             -0.0000   YZ=             -0.0000

  Exact polarizability:  69.308   0.199  83.549   0.000   0.000  25.982
 Approx polarizability: 110.748  -0.615 148.649  -0.000  -0.000  37.642

                      1                      2                      3
                     A"                     A"                     A'
 Frequencies --    175.6887               392.3825               458.9745
 Red. masses --      5.7003                 3.2409                 6.1119
 Frc consts  --      0.1037                 0.2940                 0.7586
 IR Inten    --      2.6322                 1.6906                 6.7285

                      4                      5                      6
                     A"                     A'                     A'
 Frequencies --    493.6718               549.6716               618.4699
 Red. masses --      2.0588                 7.9296                 6.7526
 Frc consts  --      0.2956                 1.4116                 1.5218
 IR Inten    --     44.5745                 6.1644                 0.7101

                      7                      8                      9
                     A"                     A"                     A"
 Frequencies --    705.7087               742.0343               776.0728
 Red. masses --      1.4289                 1.5117                 1.9036
 Frc consts  --      0.4193                 0.4904                 0.6755
 IR Inten    --     45.4344                 1.6904                80.4934

                     10                     11                     12
                     A'                     A"                     A"
 Frequencies --    819.8193               861.1268               951.1822
 Red. masses --      5.1464                 1.7370                 1.3054
 Frc consts  --      2.0379                 0.7589                 0.6959
 IR Inten    --      7.5108                25.9062                 0.1974

                     13                     14                     15
                     A'                     A"                     A'
 Frequencies --    999.7117              1010.3361              1018.9980
 Red. masses --      4.7510                 1.2980                 2.7545
 Frc consts  --      2.7976                 0.7806                 1.6852
 IR Inten    --     12.0444                 0.1210                 5.2163

                     16                     17                     18
                     A'                     A'                     A'
 Frequencies --   1109.6647              1162.5834              1219.1544
 Red. masses --      1.6487                 1.2557                 1.4946
 Frc consts  --      1.1961                 0.9999                 1.3089
 IR Inten    --     19.4949                17.1901                 4.0771

                     19                     20                     21
                     A'                     A'                     A'
 Frequencies --   1238.2824              1383.6203              1454.6612
 Red. masses --      1.6505                 1.4924                 1.9678
 Frc consts  --      1.4911                 1.6834                 2.4533
 IR Inten    --     25.2720                 1.7233                 5.6727

                     22                     23                     24
                     A'                     A'                     A'
 Frequencies --   1492.2797              1589.7186              1669.0983
 Red. masses --      2.4394                 5.1589                 4.7811
 Frc consts  --      3.2006                 7.6815                 7.8476
 IR Inten    --      2.4030                55.7818                42.4297

                     25                     26                     27
                     A'                     A'                     A'
 Frequencies --   1774.0891              3186.1779              3214.6176
 Red. masses --      8.2141                 1.0900                 1.0910
 Frc consts  --     15.2321                 6.5194                 6.6425
 IR Inten    --    585.4603                 8.8303                 1.1462

                     28                     29                     30
                     A'                     A'                     A'
 Frequencies --   3224.5461              3238.2814              3571.4587
 Red. masses --      1.0944                 1.0981                 1.0784
 Frc consts  --      6.7046                 6.7844                 8.1042
 IR Inten    --      1.0313                 2.1926                72.0803

 - Thermochemistry -
 -------------------
 Temperature   298.150 Kelvin.  Pressure   1.00000 Atm.
 Atom     1 has atomic number  8 and mass  15.99491

 Molecular mass:    95.03711 amu.
 Principal axes and moments of inertia in atomic units:
                           1         2         3
     Eigenvalues --   319.49325 649.44102 968.93427
           X           -0.05860   0.99828   0.00000
           Y            0.99828   0.05860   0.00000
           Z           -0.00000  -0.00000   1.00000
 This molecule is an asymmetric top.
 Rotational symmetry number  1.
 Rotational temperatures (Kelvin)      0.27110     0.13337     0.08939
 Rotational constants (GHZ):           5.64876     2.77891     1.86260
 Zero-point vibrational energy     245845.0 (Joules/Mol)
                                   58.75838 (Kcal/Mol)
 Warning -- explicit consideration of   6 degrees of freedom as
           vibrations may cause significant error
 Vibrational temperatures:    252.78   564.55   660.36   710.28   790.85
          (Kelvin)            889.84  1015.36  1067.62  1116.59  1179.54
                             1238.97  1368.54  1438.36  1453.65  1466.11
                             1596.56  1672.70  1754.09  1781.61  1990.72
                             2092.93  2147.05  2287.25  2401.46  2552.52
                             4584.19  4625.11  4639.40  4659.16  5138.53

 Zero-point correction=                           0.093637 (Hartree/Particle)
 Thermal correction to Energy=                    0.098891
 Thermal correction to Enthalpy=                  0.099835
 Thermal correction to Gibbs Free Energy=         0.064719
 Sum of electronic and zero-point Energies=           -323.379393
 Sum of electronic and thermal Energies=              -323.374140
 Sum of electronic and thermal Enthalpies=            -323.373196
 Sum of electronic and thermal Free Energies=         -323.408312

                     E (Thermal)             CV                S
                      KCal/Mol        Cal/Mol-Kelvin    Cal/Mol-Kelvin
 Total                   62.055             20.304             73.908
 Electronic               0.000              0.000              0.000
 Translational            0.889              2.981             39.566
 Rotational               0.889              2.981             26.800
 Vibrational             60.277             14.342              7.542
 Vibration     1          0.628              1.872              2.374
 Vibration     2          0.760              1.486              0.991
 Vibration     3          0.817              1.341              0.769
 Vibration     4          0.849              1.264              0.674
 Vibration     5          0.905              1.140              0.545
 Vibration     6          0.978              0.993              0.419

 Optimization completed.
    -- Stationary point found.
 Normal termination of Gaussian 09 at Thu Aug 26 16:34:19 2021.
