 Gaussian 09, Revision E.01,
 Gaussian 09:  EM64L-G09RevE.01 30-Nov-2015

 --------------------
 # opt freq b3lyp/gen
 --------------------

 ----------------------
 PY_pc-0_B3LYP_OPT_FREQ
 ----------------------
 Symbolic Z-matrix:
 Charge =  0 Multiplicity = 1

 SCF Done:  E(RB3LYP) =  -322.642394047     A.U. after   15 cycles
 SCF Done:  E(RB3LYP) =  -322.649743257     A.U. after   14 cycles
 SCF Done:  E(RB3LYP) =  -322.650411389     A.U. after   12 cycles
 SCF Done:  E(RB3LYP) =  -322.650501131     A.U. after   11 cycles
 SCF Done:  E(RB3LYP) =  -322.650511890     A.U. after   10 cycles
 SCF Done:  E(RB3LYP) =  -322.650512502     A.U. after    8 cycles
 Optimization completed.
    -- Stationary point found.
 Normal termination of Gaussian 09 at Thu Aug 26 16:33:15 2021.

 ------------------------------------------------------------------
 #N Geom=AllCheck Guess=TCheck SCRF=Check GenChk RB3LYP/ChkBas Freq
 ------------------------------------------------------------------

 Structure from the checkpoint file:  "PY_pc-0_B3LYP_OPT_FREQ.chk"
 ----------------------
 PY_pc-0_B3LYP_OPT_FREQ
 ----------------------
 Charge =  0 Multiplicity = 1

                         Standard orientation:
 ---------------------------------------------------------------------
 Center     Atomic      Atomic             Coordinates (Angstroms)
 Number     Number       Type             X           Y           Z
 ---------------------------------------------------------------------
      1          8           0       -0.145613    2.325085    0.000000
      2          7           0       -1.147603    0.225003    0.000000
      3          6           0        0.000000    1.076375    0.000000
      4          6           0        1.244094    0.328955   -0.000000
      5          6           0       -1.125897   -1.157486    0.000000
      6          6           0        1.278292   -1.042113   -0.000000
      7          6           0        0.075002   -1.820464   -0.000000
      8          1           0       -2.046215    0.722366    0.000000
      9          1           0        2.162552    0.909841   -0.000000
     10          1           0       -2.093633   -1.656955    0.000000
     11          1           0        2.241799   -1.555230   -0.000000
     12          1           0        0.104682   -2.907325   -0.000000
 ---------------------------------------------------------------------

 SCF Done:  E(RB3LYP) =  -322.650512502     A.U. after    1 cycles

 The electronic state is 1-A'.
 Alpha  occ. eigenvalues --  -19.13584 -14.42734 -10.32526 -10.29049 -10.24798
 Alpha  occ. eigenvalues --  -10.23391 -10.22837  -1.03821  -0.96671  -0.83609
 Alpha  occ. eigenvalues --   -0.77665  -0.66973  -0.65315  -0.57556  -0.52710
 Alpha  occ. eigenvalues --   -0.50444  -0.47967  -0.44581  -0.43286  -0.39312
 Alpha  occ. eigenvalues --   -0.38544  -0.34949  -0.31997  -0.25231  -0.22831
 Alpha virt. eigenvalues --   -0.05504   0.00012   0.06118   0.09408   0.11514
 Alpha virt. eigenvalues --    0.12175   0.13870   0.15697   0.21619   0.28428
 Alpha virt. eigenvalues --    0.29748   0.32859   0.38113   0.46244   0.50214

 Mulliken charges:
               1
     1  O   -0.320614
     2  N   -0.572785
     3  C    0.308199
     4  C   -0.206304
     5  C    0.050876
     6  C   -0.118484
     7  C   -0.223150
     8  H    0.317558
     9  H    0.199749
    10  H    0.200970
    11  H    0.188150
    12  H    0.175835
 Sum of Mulliken charges =  -0.00000

 Dipole moment (field-independent basis, Debye):
    X=             -1.2245    Y=             -4.2936    Z=              0.0000  Tot=              4.4648
 Quadrupole moment (field-independent basis, Debye-Ang):
   XX=            -31.1564   YY=            -47.2359   ZZ=            -44.0120
   XY=              0.2610   XZ=              0.0000   YZ=              0.0000

  Exact polarizability:  63.480   0.134  78.191   0.000  -0.000  16.113
 Approx polarizability: 102.329  -1.136 150.433  -0.000   0.000  19.287

                      1                      2                      3
                     A"                     A"                     A'
 Frequencies --    186.5427               402.5848               434.5056
 Red. masses --      5.2128                 2.9534                 6.1733
 Frc consts  --      0.1069                 0.2820                 0.6867
 IR Inten    --      3.5821                 0.5545                 8.0492

                      4                      5                      6
                     A"                     A'                     A'
 Frequencies --    517.8255               550.6751               629.6454
 Red. masses --      2.3202                 8.2033                 6.7404
 Frc consts  --      0.3666                 1.4656                 1.5744
 IR Inten    --     38.7394                 5.0253                 0.4851

                      7                      8                      9
                     A"                     A"                     A'
 Frequencies --    721.4723               796.2861               814.3597
 Red. masses --      1.8092                 1.3647                 5.1989
 Frc consts  --      0.5549                 0.5098                 2.0314
 IR Inten    --     41.3618                46.7968                 4.4164

                     10                     11                     12
                     A"                     A"                     A"
 Frequencies --    836.6251               919.9634               988.6958
 Red. masses --      1.4996                 1.7573                 1.3367
 Frc consts  --      0.6184                 0.8763                 0.7698
 IR Inten    --     79.2590                66.8574                 2.7996

                     13                     14                     15
                     A'                     A'                     A"
 Frequencies --   1004.5885              1016.7191              1065.3688
 Red. masses --      2.6178                 5.9740                 1.3541
 Frc consts  --      1.5566                 3.6385                 0.9055
 IR Inten    --      1.4466                11.3892                 3.1255

                     16                     17                     18
                     A'                     A'                     A'
 Frequencies --   1099.7471              1184.9982              1239.9247
 Red. masses --      1.8799                 1.3241                 1.1734
 Frc consts  --      1.3396                 1.0955                 1.0629
 IR Inten    --     20.1799                13.8082                12.7773

                     19                     20                     21
                     A'                     A'                     A'
 Frequencies --   1266.9075              1413.0683              1453.1862
 Red. masses --      2.1716                 1.4533                 1.9878
 Frc consts  --      2.0536                 1.7098                 2.4732
 IR Inten    --     14.3759                 2.1467                 3.1469

                     22                     23                     24
                     A'                     A'                     A'
 Frequencies --   1493.3428              1584.2124              1651.1312
 Red. masses --      2.1830                 5.4740                 4.0591
 Frc consts  --      2.8683                 8.0944                 6.5199
 IR Inten    --      0.5426                40.7800                71.9077

                     25                     26                     27
                     A'                     A'                     A'
 Frequencies --   1755.0901              3208.1184              3237.1525
 Red. masses --      6.8668                 1.0905                 1.0904
 Frc consts  --     12.4624                 6.6127                 6.7321
 IR Inten    --    351.8229                 4.8944                 0.4506

                     28                     29                     30
                     A'                     A'                     A'
 Frequencies --   3260.3326              3269.1109              3528.4926
 Red. masses --      1.0986                 1.0946                 1.0781
 Frc consts  --      6.8801                 6.8924                 7.9084
 IR Inten    --      1.4089                 0.0338                88.2071

 - Thermochemistry -
 -------------------
 Temperature   298.150 Kelvin.  Pressure   1.00000 Atm.
 Atom     1 has atomic number  8 and mass  15.99491

 Molecular mass:    95.03711 amu.
 Principal axes and moments of inertia in atomic units:
                           1         2         3
     Eigenvalues --   322.47250 666.00085 988.47335
           X           -0.06165   0.99810   0.00000
           Y            0.99810   0.06165   0.00000
           Z           -0.00000   0.00000   1.00000
 This molecule is an asymmetric top.
 Rotational symmetry number  1.
 Rotational temperatures (Kelvin)      0.26859     0.13005     0.08762
 Rotational constants (GHZ):           5.59657     2.70982     1.82579
 Zero-point vibrational energy     248408.6 (Joules/Mol)
                                   59.37108 (Kcal/Mol)
 Warning -- explicit consideration of   5 degrees of freedom as
           vibrations may cause significant error
 Vibrational temperatures:    268.39   579.23   625.16   745.03   792.30
          (Kelvin)            905.92  1038.04  1145.68  1171.68  1203.72
                             1323.62  1422.51  1445.38  1462.83  1532.83
                             1582.29  1704.95  1783.97  1822.80  2033.09
                             2090.81  2148.58  2279.33  2375.61  2525.18
                             4615.76  4657.53  4690.89  4703.52  5076.71

 Zero-point correction=                           0.094614 (Hartree/Particle)
 Thermal correction to Energy=                    0.099768
 Thermal correction to Enthalpy=                  0.100712
 Thermal correction to Gibbs Free Energy=         0.065733
 Sum of electronic and zero-point Energies=           -322.555899
 Sum of electronic and thermal Energies=              -322.550745
 Sum of electronic and thermal Enthalpies=            -322.549801
 Sum of electronic and thermal Free Energies=         -322.584779

                     E (Thermal)             CV                S
                      KCal/Mol        Cal/Mol-Kelvin    Cal/Mol-Kelvin
 Total                   62.605             19.805             73.618
 Electronic               0.000              0.000              0.000
 Translational            0.889              2.981             39.566
 Rotational               0.889              2.981             26.854
 Vibrational             60.828             13.843              7.198
 Vibration     1          0.632              1.858              2.262
 Vibration     2          0.768              1.465              0.953
 Vibration     3          0.795              1.395              0.844
 Vibration     4          0.873              1.211              0.615
 Vibration     5          0.906              1.138              0.543

 Optimization completed.
    -- Stationary point found.
 Normal termination of Gaussian 09 at Thu Aug 26 16:33:31 2021.
