 Gaussian 09, Revision E.01,
 Gaussian 09:  EM64L-G09RevE.01 30-Nov-2015

 --------------------
 # opt freq b3lyp/gen
 --------------------

 ----------------------
 PY_pc-2_B3LYP_OPT_FREQ
 ----------------------
 Symbolic Z-matrix:
 Charge =  0 Multiplicity = 1

 SCF Done:  E(RB3LYP) =  -323.655600713     A.U. after   14 cycles
 SCF Done:  E(RB3LYP) =  -323.659547440     A.U. after   12 cycles
 SCF Done:  E(RB3LYP) =  -323.660076761     A.U. after   11 cycles
 SCF Done:  E(RB3LYP) =  -323.660162422     A.U. after   10 cycles
 SCF Done:  E(RB3LYP) =  -323.660169137     A.U. after    8 cycles
 Optimization completed.
    -- Stationary point found.
 Normal termination of Gaussian 09 at Thu Aug 26 16:35:31 2021.

 ------------------------------------------------------------------
 #N Geom=AllCheck Guess=TCheck SCRF=Check GenChk RB3LYP/ChkBas Freq
 ------------------------------------------------------------------

 Structure from the checkpoint file:  "PY_pc-2_B3LYP_OPT_FREQ.chk"
 ----------------------
 PY_pc-2_B3LYP_OPT_FREQ
 ----------------------
 Charge =  0 Multiplicity = 1

                         Standard orientation:
 ---------------------------------------------------------------------
 Center     Atomic      Atomic             Coordinates (Angstroms)
 Number     Number       Type             X           Y           Z
 ---------------------------------------------------------------------
      1          8           0       -0.131007    2.278251    0.000000
      2          7           0       -1.136705    0.233930    0.000000
      3          6           0        0.000000    1.063323    0.000000
      4          6           0        1.243041    0.321603    0.000000
      5          6           0       -1.119253   -1.125360    0.000000
      6          6           0        1.261470   -1.037776    0.000000
      7          6           0        0.059586   -1.797534    0.000000
      8          1           0       -2.014924    0.731024    0.000000
      9          1           0        2.149677    0.907834    0.000000
     10          1           0       -2.082283   -1.614542    0.000000
     11          1           0        2.210964   -1.557859    0.000000
     12          1           0        0.072499   -2.875509    0.000000
 ---------------------------------------------------------------------

 SCF Done:  E(RB3LYP) =  -323.660169137     A.U. after    1 cycles

 The electronic state is 1-A'.
 Alpha  occ. eigenvalues --  -19.08347 -14.37993 -10.27798 -10.24459 -10.20623
 Alpha  occ. eigenvalues --  -10.19037 -10.18681  -1.04244  -0.96674  -0.83039
 Alpha  occ. eigenvalues --   -0.76884  -0.66411  -0.64736  -0.57268  -0.51702
 Alpha  occ. eigenvalues --   -0.49793  -0.47220  -0.45037  -0.43489  -0.40035
 Alpha  occ. eigenvalues --   -0.38670  -0.35563  -0.32028  -0.26371  -0.23276
 Alpha virt. eigenvalues --   -0.05714  -0.00336   0.00057   0.02606   0.04034
 Alpha virt. eigenvalues --    0.06610   0.07579   0.11436   0.12332   0.14239
 Alpha virt. eigenvalues --    0.14591   0.15319   0.17232   0.18617   0.18770

 Mulliken charges:
               1
     1  O   -0.482397
     2  N   -0.262843
     3  C    0.420549
     4  C   -0.127225
     5  C    0.180763
     6  C    0.034324
     7  C   -0.131386
     8  H    0.156041
     9  H    0.053973
    10  H    0.057418
    11  H    0.054654
    12  H    0.046129
 Sum of Mulliken charges =  -0.00000

 Dipole moment (field-independent basis, Debye):
    X=             -1.1900    Y=             -4.2570    Z=             -0.0000  Tot=              4.4202
 Quadrupole moment (field-independent basis, Debye-Ang):
   XX=            -31.7324   YY=            -48.1882   ZZ=            -43.1701
   XY=              0.1751   XZ=              0.0000   YZ=             -0.0000

  Exact polarizability:  73.412   0.066  89.939   0.000   0.000  37.997
 Approx polarizability: 117.119  -0.222 152.866   0.000   0.000  57.597

                      1                      2                      3
                     A"                     A"                     A'
 Frequencies --    172.0412               391.0578               459.2924
 Red. masses --      5.7745                 3.2934                 6.1210
 Frc consts  --      0.1007                 0.2967                 0.7608
 IR Inten    --      3.1696                 1.2834                 6.4210

                      4                      5                      6
                     A"                     A'                     A'
 Frequencies --    491.5512               550.0960               620.0801
 Red. masses --      2.0592                 7.9585                 6.7750
 Frc consts  --      0.2931                 1.4189                 1.5348
 IR Inten    --     38.2855                 7.1159                 0.7574

                      7                      8                      9
                     A"                     A"                     A"
 Frequencies --    700.7074               741.0053               777.2181
 Red. masses --      1.3340                 1.7141                 1.8089
 Frc consts  --      0.3859                 0.5545                 0.6438
 IR Inten    --     43.2268                 3.7676                68.0004

                     10                     11                     12
                     A'                     A"                     A"
 Frequencies --    819.4920               861.5962               954.7148
 Red. masses --      5.2294                 1.7168                 1.3036
 Frc consts  --      2.0691                 0.7509                 0.7000
 IR Inten    --      9.3326                18.1036                 0.0389

                     13                     14                     15
                     A'                     A"                     A'
 Frequencies --   1004.5176              1011.5742              1019.4403
 Red. masses --      4.7215                 1.2966                 2.8619
 Frc consts  --      2.8070                 0.7817                 1.7524
 IR Inten    --     13.3754                 0.0850                 5.4450

                     16                     17                     18
                     A'                     A'                     A'
 Frequencies --   1111.5854              1167.4019              1224.8391
 Red. masses --      1.6949                 1.2844                 1.3892
 Frc consts  --      1.2339                 1.0313                 1.2280
 IR Inten    --     17.4999                20.3372                 6.3662

                     19                     20                     21
                     A'                     A'                     A'
 Frequencies --   1239.8709              1391.7208              1455.4281
 Red. masses --      1.8239                 1.4707                 2.0487
 Frc consts  --      1.6520                 1.6783                 2.5569
 IR Inten    --     23.2868                 3.3786                 7.8378

                     22                     23                     24
                     A'                     A'                     A'
 Frequencies --   1492.7287              1580.1346              1660.9735
 Red. masses --      2.2656                 4.9204                 4.4571
 Frc consts  --      2.9744                 7.2383                 7.2448
 IR Inten    --      1.5378                51.3671                48.6832

                     25                     26                     27
                     A'                     A'                     A'
 Frequencies --   1742.3714              3173.0821              3204.0084
 Red. masses --      7.6922                 1.0891                 1.0903
 Frc consts  --     13.7589                 6.4606                 6.5943
 IR Inten    --    649.0274                 9.9949                 1.5915

                     28                     29                     30
                     A'                     A'                     A'
 Frequencies --   3214.1620              3229.3176              3593.3663
 Red. masses --      1.0933                 1.0967                 1.0778
 Frc consts  --      6.6549                 6.7387                 8.1994
 IR Inten    --      1.7329                 2.9753                60.1742

 - Thermochemistry -
 -------------------
 Temperature   298.150 Kelvin.  Pressure   1.00000 Atm.
 Atom     1 has atomic number  8 and mass  15.99491

 Molecular mass:    95.03711 amu.
 Principal axes and moments of inertia in atomic units:
                           1         2         3
     Eigenvalues --   317.15879 644.15623 961.31502
           X           -0.05881   0.99827   0.00000
           Y            0.99827   0.05881   0.00000
           Z           -0.00000  -0.00000   1.00000
 This molecule is an asymmetric top.
 Rotational symmetry number  1.
 Rotational temperatures (Kelvin)      0.27309     0.13446     0.09010
 Rotational constants (GHZ):           5.69034     2.80171     1.87737
 Zero-point vibrational energy     245565.7 (Joules/Mol)
                                   58.69161 (Kcal/Mol)
 Warning -- explicit consideration of   6 degrees of freedom as
           vibrations may cause significant error
 Vibrational temperatures:    247.53   562.64   660.82   707.23   791.46
          (Kelvin)            892.16  1008.16  1066.14  1118.24  1179.06
                             1239.64  1373.62  1445.28  1455.43  1466.75
                             1599.32  1679.63  1762.27  1783.90  2002.37
                             2094.03  2147.70  2273.46  2389.77  2506.88
                             4565.35  4609.85  4624.46  4646.26  5170.05

 Zero-point correction=                           0.093531 (Hartree/Particle)
 Thermal correction to Energy=                    0.098791
 Thermal correction to Enthalpy=                  0.099736
 Thermal correction to Gibbs Free Energy=         0.064609
 Sum of electronic and zero-point Energies=           -323.566638
 Sum of electronic and thermal Energies=              -323.561378
 Sum of electronic and thermal Enthalpies=            -323.560434
 Sum of electronic and thermal Free Energies=         -323.595560

                     E (Thermal)             CV                S
                      KCal/Mol        Cal/Mol-Kelvin    Cal/Mol-Kelvin
 Total                   61.993             20.303             73.930
 Electronic               0.000              0.000              0.000
 Translational            0.889              2.981             39.566
 Rotational               0.889              2.981             26.776
 Vibrational             60.215             14.341              7.587
 Vibration     1          0.626              1.877              2.413
 Vibration     2          0.759              1.489              0.996
 Vibration     3          0.817              1.340              0.768
 Vibration     4          0.847              1.269              0.680
 Vibration     5          0.905              1.139              0.544
 Vibration     6          0.980              0.990              0.416

 Optimization completed.
    -- Stationary point found.
 Normal termination of Gaussian 09 at Thu Aug 26 16:36:09 2021.
