 Gaussian 09, Revision E.01,
 Gaussian 09:  EM64L-G09RevE.01 30-Nov-2015

 ----------------------------------------------------------------------
 #p opt=(calcfc,qst3,cartesian) freq TPSSh/gen int=acc2e=12 scf=(novara
 cc,noincfock)
 ----------------------------------------------------------------------

 ---------------------
 HY_TPSSh_PC2_OPT_FREQ
 ---------------------
 Symbolic Z-matrix:
 Charge =  0 Multiplicity = 1

 ---------------------
 PY_TPSSh_PC2_OPT_FREQ
 ---------------------
 Symbolic Z-matrix:
 Charge =  0 Multiplicity = 1

 -------------
 TST_GAS_TPSSh
 -------------
 Symbolic Z-matrix:
 Charge =  0 Multiplicity = 1

 SCF Done:  E(RTPSSh) =  -323.588055564     A.U. after   13 cycles
 SCF Done:  E(RTPSSh) =  -323.599087947     A.U. after   11 cycles
 SCF Done:  E(RTPSSh) =  -323.609136312     A.U. after   11 cycles
 SCF Done:  E(RTPSSh) =  -323.608933246     A.U. after   11 cycles
 SCF Done:  E(RTPSSh) =  -323.616421667     A.U. after   12 cycles
 SCF Done:  E(RTPSSh) =  -323.610291746     A.U. after   11 cycles
 SCF Done:  E(RTPSSh) =  -323.607468782     A.U. after   12 cycles
 SCF Done:  E(RTPSSh) =  -323.608421732     A.U. after   11 cycles
 SCF Done:  E(RTPSSh) =  -323.608197415     A.U. after   11 cycles
 SCF Done:  E(RTPSSh) =  -323.608634583     A.U. after   10 cycles
 SCF Done:  E(RTPSSh) =  -323.608648770     A.U. after    9 cycles
 SCF Done:  E(RTPSSh) =  -323.608650621     A.U. after    8 cycles
 Optimization completed.
    -- Stationary point found.
 Normal termination of Gaussian 09 at Fri Sep  3 02:26:10 2021.

 ------------------------------------------------------------------
 #P Geom=AllCheck Guess=TCheck SCRF=Check GenChk RTPSSh/ChkBas Freq
 ------------------------------------------------------------------

 Structure from the checkpoint file:  "TST_GAS_TPSSh.chk"
 ---------------------
 HY_TPSSh_PC2_OPT_FREQ
 ---------------------
 Charge =  0 Multiplicity = 1

                         Standard orientation:
 ---------------------------------------------------------------------
 Center     Atomic      Atomic             Coordinates (Angstroms)
 Number     Number       Type             X           Y           Z
 ---------------------------------------------------------------------
      1          8           0       -2.233289    0.033273    0.000400
      2          7           0       -0.421419   -1.045775   -0.000530
      3          6           0       -0.955673    0.206555   -0.000165
      4          6           0       -0.113714    1.332323   -0.000232
      5          6           0        0.892911   -1.285155    0.000067
      6          6           0        1.247089    1.086307    0.000010
      7          6           0        1.771682   -0.217682    0.000261
      8          1           0       -1.699009   -1.229604    0.000481
      9          1           0       -0.522488    2.331902   -0.000277
     10          1           0        1.213385   -2.318458   -0.000083
     11          1           0        1.932475    1.925715    0.000084
     12          1           0        2.838101   -0.389410    0.000660
 ---------------------------------------------------------------------

 SCF Done:  E(RTPSSh) =  -323.608650621     A.U. after    1 cycles

 The electronic state is 1-A.
 Alpha  occ. eigenvalues --  -19.03638 -14.28517 -10.21134 -10.17849 -10.15020
 Alpha  occ. eigenvalues --  -10.13282 -10.13055  -1.03794  -0.91989  -0.80153
 Alpha  occ. eigenvalues --   -0.74509  -0.65086  -0.60960  -0.53317  -0.49549
 Alpha  occ. eigenvalues --   -0.46812  -0.43453  -0.43215  -0.41166  -0.38074
 Alpha  occ. eigenvalues --   -0.33612  -0.33473  -0.29901  -0.28004  -0.22164
 Alpha virt. eigenvalues --   -0.06558  -0.02078   0.01293   0.03320   0.04493
 Alpha virt. eigenvalues --    0.06136   0.07485   0.10692   0.12117   0.13870
 Alpha virt. eigenvalues --    0.15211   0.15347   0.16962   0.17680   0.19202

 Mulliken charges:
               1
     1  O   -0.521227
     2  N   -0.459501
     3  C    0.549984
     4  C   -0.134961
     5  C    0.215843
     6  C    0.077518
     7  C   -0.171871
     8  H    0.255336
     9  H    0.038537
    10  H    0.064034
    11  H    0.050207
    12  H    0.036101
 Sum of Mulliken charges =  -0.00000

 Dipole moment (field-independent basis, Debye):
    X=              3.4400    Y=             -0.3705    Z=              0.0004  Tot=              3.4599
 Quadrupole moment (field-independent basis, Debye-Ang):
   XX=            -44.4916   YY=            -34.3839   ZZ=            -42.8783
   XY=              0.8609   XZ=              0.0018   YZ=             -0.0021

  Exact polarizability:  89.777  -1.382  75.204   0.001  -0.002  37.437
 Approx polarizability: 170.488  -6.185 136.715   0.000  -0.001  58.352

 ******    1 imaginary frequencies (negative Signs) ******

                      1                      2                      3
                      A                      A                      A
 Frequencies --  -1807.9544               184.0074               408.5746
 Red. masses --      1.0717                 6.7982                 3.4015
 Frc consts  --      2.0640                 0.1356                 0.3345
 IR Inten    --    550.9522                 0.0190                 2.1450

                      4                      5                      6
                      A                      A                      A
 Frequencies --    485.3072               490.8931               600.9559
 Red. masses --      2.5023                 7.1507                 7.1059
 Frc consts  --      0.3472                 1.0152                 1.5120
 IR Inten    --     16.5974                 2.9789                 2.7274

                      7                      8                      9
                      A                      A                      A
 Frequencies --    665.0715               733.9086               769.1864
 Red. masses --      6.9972                 3.3657                 1.3675
 Frc consts  --      1.8235                 1.0681                 0.4767
 IR Inten    --      0.1605                 3.2558                58.1887

                     10                     11                     12
                      A                      A                      A
 Frequencies --    857.5829               889.9514               963.6111
 Red. masses --      1.3548                 5.8114                 1.3494
 Frc consts  --      0.5870                 2.7119                 0.7382
 IR Inten    --      2.4824                 6.7919                 1.5096

                     13                     14                     15
                      A                      A                      A
 Frequencies --   1000.7527              1012.5848              1036.6757
 Red. masses --      1.2878                 6.0928                 2.1158
 Frc consts  --      0.7599                 3.6807                 1.3397
 IR Inten    --      0.1084                12.9734                 4.1010

                     16                     17                     18
                      A                      A                      A
 Frequencies --   1111.9660              1137.3958              1173.9340
 Red. masses --      1.1771                 1.4802                 1.1125
 Frc consts  --      0.8576                 1.1282                 0.9033
 IR Inten    --     54.7266                 5.2411                13.9110

                     19                     20                     21
                      A                      A                      A
 Frequencies --   1270.7588              1329.3906              1403.9362
 Red. masses --      2.8387                 2.2097                 2.4669
 Frc consts  --      2.7008                 2.3009                 2.8648
 IR Inten    --      1.9011                33.1047                17.5038

                     22                     23                     24
                      A                      A                      A
 Frequencies --   1481.6352              1529.3266              1583.8517
 Red. masses --      2.3135                 4.1359                 5.0304
 Frc consts  --      2.9923                 5.6992                 7.4351
 IR Inten    --      2.5754               287.7321                30.1942

                     25                     26                     27
                      A                      A                      A
 Frequencies --   1653.0150              2101.5007              3171.6276
 Red. masses --      6.0592                 1.0758                 1.0887
 Frc consts  --      9.7549                 2.7992                 6.4526
 IR Inten    --    398.0210                44.6800                 8.5445

                     28                     29                     30
                      A                      A                      A
 Frequencies --   3193.8905              3215.6991              3218.9949
 Red. masses --      1.0898                 1.0943                 1.0954
 Frc consts  --      6.5497                 6.6672                 6.6877
 IR Inten    --      3.9440                 8.2190                 0.7381

 - Thermochemistry -
 -------------------
 Temperature   298.150 Kelvin.  Pressure   1.00000 Atm.
 Atom     1 has atomic number  8 and mass  15.99491

 Molecular mass:    95.03711 amu.
 Principal axes and moments of inertia in atomic units:
                           1         2         3
     Eigenvalues --   314.25099 627.37656 941.62749
           X            0.99997   0.00775   0.00001
           Y           -0.00775   0.99997  -0.00001
           Z           -0.00001   0.00001   1.00000
 This molecule is an asymmetric top.
 Rotational symmetry number  1.
 Rotational temperatures (Kelvin)      0.27562     0.13806     0.09198
 Rotational constants (GHZ):           5.74299     2.87665     1.91662
    1 imaginary frequencies ignored.
 Zero-point vibrational energy     231333.8 (Joules/Mol)
                                   55.29010 (Kcal/Mol)
 Warning -- explicit consideration of   5 degrees of freedom as
           vibrations may cause significant error
 Vibrational temperatures:    264.75   587.85   698.25   706.28   864.64
          (Kelvin)            956.89  1055.93  1106.69  1233.87  1280.44
                             1386.42  1439.86  1456.88  1491.54  1599.87
                             1636.46  1689.03  1828.34  1912.69  2019.95
                             2131.74  2200.36  2278.81  2378.32  3023.59
                             4563.26  4595.29  4626.67  4631.41

 Zero-point correction=                           0.088110 (Hartree/Particle)
 Thermal correction to Energy=                    0.093146
 Thermal correction to Enthalpy=                  0.094090
 Thermal correction to Gibbs Free Energy=         0.059342
 Sum of electronic and zero-point Energies=           -323.520540
 Sum of electronic and thermal Energies=              -323.515504
 Sum of electronic and thermal Enthalpies=            -323.514560
 Sum of electronic and thermal Free Energies=         -323.549309

                     E (Thermal)             CV                S
                      KCal/Mol        Cal/Mol-Kelvin    Cal/Mol-Kelvin
 Total                   58.450             19.194             73.135
 Electronic               0.000              0.000              0.000
 Translational            0.889              2.981             39.566
 Rotational               0.889              2.981             26.720
 Vibrational             56.673             13.233              6.848
 Vibration     1          0.631              1.862              2.287
 Vibration     2          0.773              1.452              0.932
 Vibration     3          0.841              1.283              0.696
 Vibration     4          0.847              1.270              0.681
 Vibration     5          0.959              1.030              0.448

 Optimization completed.
    -- Stationary point found.
 Normal termination of Gaussian 09 at Fri Sep  3 02:31:31 2021.
