 Gaussian 09, Revision E.01,
 Gaussian 09:  EM64L-G09RevE.01 30-Nov-2015

 -----------------------
 #p opt freq LC-wPBE/gen
 -----------------------

 ---------------------------
 HY_H2O_LC-wPBE_PC2_OPT_FREQ
 ---------------------------
 Symbolic Z-matrix:
 Charge =  0 Multiplicity = 1

 SCF Done:  E(RLC-wPBE) =  -399.870607636     A.U. after   15 cycles
 SCF Done:  E(RLC-wPBE) =  -399.871155840     A.U. after   11 cycles
 SCF Done:  E(RLC-wPBE) =  -399.871178880     A.U. after    9 cycles
 SCF Done:  E(RLC-wPBE) =  -399.871189396     A.U. after    9 cycles
 SCF Done:  E(RLC-wPBE) =  -399.871194956     A.U. after    9 cycles
 SCF Done:  E(RLC-wPBE) =  -399.871198888     A.U. after    8 cycles
 SCF Done:  E(RLC-wPBE) =  -399.871199694     A.U. after    9 cycles
 Optimization completed.
    -- Stationary point found.
 Normal termination of Gaussian 09 at Fri Aug 27 00:51:26 2021.

 --------------------------------------------------------------------
 #P Geom=AllCheck Guess=TCheck SCRF=Check GenChk RLC-wPBE/ChkBas Freq
 --------------------------------------------------------------------

 Structure from the checkpoint file:  "HY_H2O_LC-wPBE_PC2_OPT_FREQ.chk"
 ---------------------------
 HY_H2O_LC-wPBE_PC2_OPT_FREQ
 ---------------------------
 Charge =  0 Multiplicity = 1

                         Standard orientation:
 ---------------------------------------------------------------------
 Center     Atomic      Atomic             Coordinates (Angstroms)
 Number     Number       Type             X           Y           Z
 ---------------------------------------------------------------------
      1          8           0        1.215861    1.431533   -0.002559
      2          7           0        0.303914   -0.663463   -0.005113
      3          6           0        0.140532    0.647760   -0.000069
      4          6           0       -1.119061    1.250460    0.008402
      5          6           0       -0.783498   -1.436239   -0.005616
      6          6           0       -2.220986    0.439967    0.009285
      7          6           0       -2.061300   -0.942266    0.001640
      8          1           0        2.024833    0.876768   -0.019344
      9          1           0       -1.188354    2.328773    0.012164
     10          1           0       -0.601930   -2.505452   -0.013013
     11          1           0       -3.212649    0.875662    0.014750
     12          1           0       -2.910243   -1.610992    0.000466
     13          8           0        3.068790   -0.581527   -0.083178
     14          1           0        3.564757   -0.880862    0.679486
     15          1           0        2.184857   -0.997802   -0.034672
 ---------------------------------------------------------------------

 SCF Done:  E(RLC-wPBE) =  -399.871199694     A.U. after    1 cycles

 The electronic state is 1-A.
 Alpha  occ. eigenvalues --  -18.98555 -18.96460 -14.21045 -10.21176 -10.15591
 Alpha  occ. eigenvalues --  -10.13749 -10.11803 -10.11561  -1.21232  -1.14261
 Alpha  occ. eigenvalues --   -1.09456  -0.96399  -0.90914  -0.79414  -0.77264
 Alpha  occ. eigenvalues --   -0.69359  -0.67522  -0.64705  -0.61640  -0.58420
 Alpha  occ. eigenvalues --   -0.57702  -0.54206  -0.53080  -0.51206  -0.48967
 Alpha  occ. eigenvalues --   -0.48701  -0.44524  -0.41266  -0.40141  -0.34738
 Alpha virt. eigenvalues --    0.04380   0.07423   0.08991   0.09937   0.11076
 Alpha virt. eigenvalues --    0.12787   0.14247   0.17869   0.19547   0.22938
 Alpha virt. eigenvalues --    0.23365   0.24484   0.25334   0.26789   0.27692

 Mulliken charges:
               1
     1  O   -0.386407
     2  N   -0.498784
     3  C    0.520630
     4  C   -0.140726
     5  C    0.160360
     6  C    0.050476
     7  C   -0.167373
     8  H    0.222207
     9  H    0.057656
    10  H    0.057228
    11  H    0.060940
    12  H    0.046161
    13  O   -0.441444
    14  H    0.222336
    15  H    0.236739
 Sum of Mulliken charges =   0.00000

 Dipole moment (field-independent basis, Debye):
    X=             -1.8863    Y=             -1.3967    Z=              1.3571  Tot=              2.7112
 Quadrupole moment (field-independent basis, Debye-Ang):
   XX=            -41.6659   YY=            -44.4275   ZZ=            -49.0597
   XY=             -3.0702   XZ=              5.3803   YZ=             -1.3599

  Exact polarizability:  93.686   2.331  81.148   0.826  -0.139  43.178
 Approx polarizability:  91.128   3.359  87.066   0.733  -0.274  48.713

                      1                      2                      3
                      A                      A                      A
 Frequencies --     69.8200               154.9294               191.9753
 Red. masses --      5.0163                 4.6558                 6.9014
 Frc consts  --      0.0144                 0.0658                 0.1499
 IR Inten    --      4.6204                23.1937                 2.6838

                      4                      5                      6
                      A                      A                      A
 Frequencies --    217.0723               280.4203               392.6935
 Red. masses --      4.3204                 1.1389                 1.2885
 Frc consts  --      0.1199                 0.0528                 0.1171
 IR Inten    --      4.1109               119.1609                62.4373

                      7                      8                      9
                      A                      A                      A
 Frequencies --    438.1120               480.2976               545.9807
 Red. masses --      2.5011                 4.5716                 2.5498
 Frc consts  --      0.2828                 0.6214                 0.4478
 IR Inten    --     25.9108                29.7389                12.1074

                     10                     11                     12
                      A                      A                      A
 Frequencies --    580.2842               648.6838               762.2883
 Red. masses --      6.9383                 6.6890                 1.1099
 Frc consts  --      1.3765                 1.6583                 0.3800
 IR Inten    --      0.4626                 0.4936               209.2180

                     13                     14                     15
                      A                      A                      A
 Frequencies --    773.5837               822.9851               846.9793
 Red. masses --      1.6778                 1.8672                 1.1753
 Frc consts  --      0.5916                 0.7451                 0.4967
 IR Inten    --     39.1942                24.4835               159.8080

                     16                     17                     18
                      A                      A                      A
 Frequencies --    886.2706               910.5141              1022.3319
 Red. masses --      5.7357                 1.4495                 1.3999
 Frc consts  --      2.6544                 0.7080                 0.8620
 IR Inten    --      9.4061                 1.3729                 0.4419

                     19                     20                     21
                      A                      A                      A
 Frequencies --   1030.8598              1048.1605              1087.0635
 Red. masses --      6.4538                 1.3426                 1.8896
 Frc consts  --      4.0408                 0.8690                 1.3156
 IR Inten    --     14.5159                 0.1207                 7.3374

                     22                     23                     24
                      A                      A                      A
 Frequencies --   1142.6626              1167.1195              1276.5797
 Red. masses --      1.4670                 1.1959                 2.2270
 Frc consts  --      1.1285                 0.9598                 2.1383
 IR Inten    --      2.7438                21.9625                79.3259

                     25                     26                     27
                      A                      A                      A
 Frequencies --   1316.8178              1381.0887              1428.8015
 Red. masses --      1.8755                 3.0185                 1.3384
 Frc consts  --      1.9161                 3.3923                 1.6099
 IR Inten    --     29.4526                44.8695               112.9069

                     28                     29                     30
                      A                      A                      A
 Frequencies --   1535.4773              1552.6646              1627.1752
 Red. masses --      2.3058                 3.1150                 1.1087
 Frc consts  --      3.2030                 4.4245                 1.7296
 IR Inten    --     14.6691               206.6151                66.7287

                     31                     32                     33
                      A                      A                      A
 Frequencies --   1691.0505              1725.5872              3211.2137
 Red. masses --      5.7506                 5.7359                 1.0909
 Frc consts  --      9.6889                10.0629                 6.6280
 IR Inten    --    101.5676               154.3869                10.0571

                     34                     35                     36
                      A                      A                      A
 Frequencies --   3227.9670              3257.2723              3263.0073
 Red. masses --      1.0907                 1.0958                 1.0977
 Frc consts  --      6.6961                 6.8502                 6.8864
 IR Inten    --      5.9985                 4.6590                 0.2345

                     37                     38                     39
                      A                      A                      A
 Frequencies --   3458.8165              3565.3865              3952.5483
 Red. masses --      1.0680                 1.0626                 1.0681
 Frc consts  --      7.5277                 7.9587                 9.8316
 IR Inten    --    174.7805              1264.7989                97.9695

 - Thermochemistry -
 -------------------
 Temperature   298.150 Kelvin.  Pressure   1.00000 Atm.
 Atom     1 has atomic number  8 and mass  15.99491

 Molecular mass:   113.04768 amu.
 Principal axes and moments of inertia in atomic units:
                           1         2         3
     Eigenvalues --   443.225051255.123111694.34304
           X            0.99990  -0.01273   0.00641
           Y            0.01276   0.99991  -0.00433
           Z           -0.00635   0.00441   0.99997
 This molecule is an asymmetric top.
 Rotational symmetry number  1.
 Warning -- assumption of classical behavior for rotation
           may cause significant error
 Rotational temperatures (Kelvin)      0.19542     0.06901     0.05112
 Rotational constants (GHZ):           4.07184     1.43790     1.06516
 Zero-point vibrational energy     316846.2 (Joules/Mol)
                                   75.72805 (Kcal/Mol)
 Warning -- explicit consideration of  10 degrees of freedom as
           vibrations may cause significant error
 Vibrational temperatures:    100.46   222.91   276.21   312.32   403.46
          (Kelvin)            565.00   630.34   691.04   785.54   834.90
                              933.31  1096.76  1113.01  1184.09  1218.61
                             1275.14  1310.03  1470.91  1483.18  1508.07
                             1564.04  1644.03  1679.22  1836.71  1894.60
                             1987.08  2055.72  2209.21  2233.94  2341.14
                             2433.04  2482.73  4620.21  4644.32  4686.48
                             4694.73  4976.46  5129.79  5686.83

 Zero-point correction=                           0.120680 (Hartree/Particle)
 Thermal correction to Energy=                    0.128462
 Thermal correction to Enthalpy=                  0.129406
 Thermal correction to Gibbs Free Energy=         0.088306
 Sum of electronic and zero-point Energies=           -399.750519
 Sum of electronic and thermal Energies=              -399.742738
 Sum of electronic and thermal Enthalpies=            -399.741793
 Sum of electronic and thermal Free Energies=         -399.782894

                     E (Thermal)             CV                S
                      KCal/Mol        Cal/Mol-Kelvin    Cal/Mol-Kelvin
 Total                   80.611             28.674             86.504
 Electronic               0.000              0.000              0.000
 Translational            0.889              2.981             40.084
 Rotational               0.889              2.981             28.335
 Vibrational             78.834             22.712             18.085
 Vibration     1          0.598              1.969              4.158
 Vibration     2          0.620              1.897              2.611
 Vibration     3          0.634              1.851              2.209
 Vibration     4          0.646              1.815              1.983
 Vibration     5          0.680              1.710              1.531
 Vibration     6          0.760              1.486              0.990
 Vibration     7          0.798              1.387              0.833
 Vibration     8          0.837              1.294              0.709
 Vibration     9          0.901              1.148              0.553
 Vibration    10          0.937              1.074              0.485

 Normal termination of Gaussian 09 at Fri Aug 27 00:52:44 2021.
