 Gaussian 09, Revision E.01,
 Gaussian 09:  EM64L-G09RevE.01 30-Nov-2015

 -----------------------
 #p opt freq LC-wPBE/gen
 -----------------------

 ---------------------------
 PY_H2O_LC-wPBE_PC2_OPT_FREQ
 ---------------------------
 Symbolic Z-matrix:
 Charge =  0 Multiplicity = 1

 SCF Done:  E(RLC-wPBE) =  -399.872786917     A.U. after   15 cycles
 SCF Done:  E(RLC-wPBE) =  -399.873440440     A.U. after   11 cycles
 SCF Done:  E(RLC-wPBE) =  -399.873477231     A.U. after   10 cycles
 SCF Done:  E(RLC-wPBE) =  -399.873490972     A.U. after   10 cycles
 SCF Done:  E(RLC-wPBE) =  -399.873494593     A.U. after    8 cycles
 SCF Done:  E(RLC-wPBE) =  -399.873497631     A.U. after    9 cycles
 SCF Done:  E(RLC-wPBE) =  -399.873498421     A.U. after    8 cycles
 SCF Done:  E(RLC-wPBE) =  -399.873498926     A.U. after    8 cycles
 SCF Done:  E(RLC-wPBE) =  -399.873499441     A.U. after    8 cycles
 SCF Done:  E(RLC-wPBE) =  -399.873500196     A.U. after    8 cycles
 SCF Done:  E(RLC-wPBE) =  -399.873500917     A.U. after    8 cycles
 SCF Done:  E(RLC-wPBE) =  -399.873501218     A.U. after    8 cycles
 Optimization completed.
    -- Stationary point found.
 Normal termination of Gaussian 09 at Fri Aug 27 01:00:11 2021.

 --------------------------------------------------------------------
 #P Geom=AllCheck Guess=TCheck SCRF=Check GenChk RLC-wPBE/ChkBas Freq
 --------------------------------------------------------------------

 Structure from the checkpoint file:  "PY_H2O_LC-wPBE_PC2_OPT_FREQ.chk"
 ---------------------------
 PY_H2O_LC-wPBE_PC2_OPT_FREQ
 ---------------------------
 Charge =  0 Multiplicity = 1

                         Standard orientation:
 ---------------------------------------------------------------------
 Center     Atomic      Atomic             Coordinates (Angstroms)
 Number     Number       Type             X           Y           Z
 ---------------------------------------------------------------------
      1          8           0        1.253637    1.380915    0.007023
      2          7           0        0.254135   -0.650997    0.013128
      3          6           0        0.212089    0.726346    0.006813
      4          6           0       -1.116238    1.281002   -0.000363
      5          6           0       -0.837720   -1.450931    0.007555
      6          6           0       -2.202716    0.482288   -0.004823
      7          6           0       -2.079649   -0.931386   -0.001470
      8          1           0        2.675023    0.275226   -0.047650
      9          1           0       -1.189600    2.359067   -0.004061
     10          1           0       -0.640175   -2.514357    0.010008
     11          1           0       -3.191246    0.926184   -0.011693
     12          1           0       -2.945428   -1.575669   -0.006559
     13          8           0        3.075904   -0.617836   -0.083203
     14          1           0        3.828600   -0.612958    0.507307
     15          1           0        1.192965   -1.049064    0.023920
 ---------------------------------------------------------------------

 SCF Done:  E(RLC-wPBE) =  -399.873501218     A.U. after    1 cycles

 The electronic state is 1-A.
 Alpha  occ. eigenvalues --  -18.95126 -18.92790 -14.26122 -10.21923 -10.17632
 Alpha  occ. eigenvalues --  -10.14292 -10.12092 -10.11912  -1.18729  -1.12846
 Alpha  occ. eigenvalues --   -1.10647  -0.97795  -0.91225  -0.80176  -0.78327
 Alpha  occ. eigenvalues --   -0.70218  -0.66189  -0.64206  -0.61520  -0.59505
 Alpha  occ. eigenvalues --   -0.59132  -0.56377  -0.51680  -0.51071  -0.49288
 Alpha  occ. eigenvalues --   -0.48179  -0.43583  -0.43160  -0.38540  -0.33396
 Alpha virt. eigenvalues --    0.03099   0.08291   0.08628   0.10068   0.11013
 Alpha virt. eigenvalues --    0.12477   0.14273   0.18176   0.20198   0.21866
 Alpha virt. eigenvalues --    0.22465   0.23768   0.24655   0.26223   0.27241

 Mulliken charges:
               1
     1  O   -0.529924
     2  N   -0.253065
     3  C    0.456409
     4  C   -0.142375
     5  C    0.180863
     6  C    0.047412
     7  C   -0.166909
     8  H    0.239775
     9  H    0.060054
    10  H    0.073110
    11  H    0.064134
    12  H    0.050310
    13  O   -0.469732
    14  H    0.216265
    15  H    0.173675
 Sum of Mulliken charges =  -0.00000

 Dipole moment (field-independent basis, Debye):
    X=             -2.4085    Y=             -2.1506    Z=              1.0813  Tot=              3.4052
 Quadrupole moment (field-independent basis, Debye-Ang):
   XX=            -40.4971   YY=            -45.4060   ZZ=            -49.5460
   XY=             -2.1806   XZ=              4.6068   YZ=             -0.8668

  Exact polarizability:  96.427   6.080  80.592   0.948  -0.242  42.820
 Approx polarizability:  93.651   7.333  84.437   1.084  -0.166  48.027

                      1                      2                      3
                      A                      A                      A
 Frequencies --     67.6676               144.6373               182.9461
 Red. masses --      4.5959                 5.6745                 4.9254
 Frc consts  --      0.0124                 0.0699                 0.0971
 IR Inten    --      3.3548                23.0208                 1.6337

                      4                      5                      6
                      A                      A                      A
 Frequencies --    194.9168               218.2165               397.1367
 Red. masses --      3.6665                 1.2753                 3.2948
 Frc consts  --      0.0821                 0.0358                 0.3062
 IR Inten    --     13.8454               128.6225                 1.6085

                      7                      8                      9
                      A                      A                      A
 Frequencies --    460.6271               493.2921               523.9307
 Red. masses --      1.1300                 5.7852                 2.3233
 Frc consts  --      0.1413                 0.8294                 0.3758
 IR Inten    --    132.6312                19.0761                25.5766

                     10                     11                     12
                      A                      A                      A
 Frequencies --    561.8843               630.1180               753.2070
 Red. masses --      7.7971                 6.7003                 1.5475
 Frc consts  --      1.4504                 1.5674                 0.5172
 IR Inten    --      8.9094                 0.0332                46.8949

                     13                     14                     15
                      A                      A                      A
 Frequencies --    759.4322               802.0201               863.6855
 Red. masses --      1.1956                 1.7049                 4.8826
 Frc consts  --      0.4063                 0.6461                 2.1459
 IR Inten    --    200.2522                44.5145                 5.4087

                     16                     17                     18
                      A                      A                      A
 Frequencies --    872.9009               901.7328              1009.0257
 Red. masses --      1.2578                 1.6511                 1.3129
 Frc consts  --      0.5647                 0.7910                 0.7876
 IR Inten    --     18.9188                88.2682                 1.1885

                     19                     20                     21
                      A                      A                      A
 Frequencies --   1012.4157              1044.8886              1045.5933
 Red. masses --      5.3868                 1.3171                 2.2091
 Frc consts  --      3.2531                 0.8473                 1.4229
 IR Inten    --     23.4656                 0.1480                 6.5028

                     22                     23                     24
                      A                      A                      A
 Frequencies --   1146.2504              1179.7925              1257.6247
 Red. masses --      1.5001                 1.0870                 1.2641
 Frc consts  --      1.1612                 0.8915                 1.1780
 IR Inten    --      9.7246                13.3593                12.6292

                     25                     26                     27
                      A                      A                      A
 Frequencies --   1307.6995              1416.0469              1491.2771
 Red. masses --      3.2247                 1.6392                 1.9932
 Frc consts  --      3.2491                 1.9365                 2.6116
 IR Inten    --     14.1381                 5.1994                10.9774

                     28                     29                     30
                      A                      A                      A
 Frequencies --   1534.1534              1632.9402              1647.8890
 Red. masses --      2.5520                 1.1404                 5.4348
 Frc consts  --      3.5389                 1.7917                 8.6953
 IR Inten    --      8.3368               269.2485                46.0765

                     31                     32                     33
                      A                      A                      A
 Frequencies --   1723.6444              1785.8091              3223.3107
 Red. masses --      4.0475                 5.3538                 1.0905
 Frc consts  --      7.0849                10.0597                 6.6752
 IR Inten    --    107.0360               665.2583                 6.5405

                     34                     35                     36
                      A                      A                      A
 Frequencies --   3249.6524              3263.5058              3274.2194
 Red. masses --      1.0915                 1.0957                 1.0996
 Frc consts  --      6.7912                 6.8757                 6.9458
 IR Inten    --      0.4157                 0.2890                 1.0186

                     37                     38                     39
                      A                      A                      A
 Frequencies --   3444.4023              3527.7963              3964.8227
 Red. masses --      1.0805                 1.0659                 1.0679
 Frc consts  --      7.5529                 7.8160                 9.8903
 IR Inten    --    112.8813               927.2223                90.9725

 - Thermochemistry -
 -------------------
 Temperature   298.150 Kelvin.  Pressure   1.00000 Atm.
 Atom     1 has atomic number  8 and mass  15.99491

 Molecular mass:   113.04768 amu.
 Principal axes and moments of inertia in atomic units:
                           1         2         3
     Eigenvalues --   443.665021271.556261712.61572
           X            0.99993  -0.01011   0.00532
           Y            0.01013   0.99994  -0.00326
           Z           -0.00528   0.00331   0.99998
 This molecule is an asymmetric top.
 Rotational symmetry number  1.
 Warning -- assumption of classical behavior for rotation
           may cause significant error
 Rotational temperatures (Kelvin)      0.19522     0.06812     0.05057
 Rotational constants (GHZ):           4.06780     1.41932     1.05379
 Zero-point vibrational energy     317076.9 (Joules/Mol)
                                   75.78319 (Kcal/Mol)
 Warning -- explicit consideration of  10 degrees of freedom as
           vibrations may cause significant error
 Vibrational temperatures:     97.36   208.10   263.22   280.44   313.96
          (Kelvin)            571.39   662.74   709.74   753.82   808.43
                              906.60  1083.70  1092.65  1153.93  1242.65
                             1255.91  1297.39  1451.76  1456.64  1503.36
                             1504.37  1649.20  1697.46  1809.44  1881.49
                             2037.37  2145.61  2207.30  2349.43  2370.94
                             2479.94  2569.38  4637.62  4675.52  4695.45
                             4710.87  4955.72  5075.71  5704.49

 Zero-point correction=                           0.120768 (Hartree/Particle)
 Thermal correction to Energy=                    0.128729
 Thermal correction to Enthalpy=                  0.129673
 Thermal correction to Gibbs Free Energy=         0.088101
 Sum of electronic and zero-point Energies=           -399.752733
 Sum of electronic and thermal Energies=              -399.744773
 Sum of electronic and thermal Enthalpies=            -399.743828
 Sum of electronic and thermal Free Energies=         -399.785400

                     E (Thermal)             CV                S
                      KCal/Mol        Cal/Mol-Kelvin    Cal/Mol-Kelvin
 Total                   80.778             28.969             87.495
 Electronic               0.000              0.000              0.000
 Translational            0.889              2.981             40.084
 Rotational               0.889              2.981             28.359
 Vibrational             79.001             23.008             19.052
 Vibration     1          0.598              1.970              4.220
 Vibration     2          0.616              1.908              2.742
 Vibration     3          0.630              1.863              2.298
 Vibration     4          0.636              1.847              2.181
 Vibration     5          0.646              1.813              1.974
 Vibration     6          0.764              1.476              0.973
 Vibration     7          0.818              1.337              0.764
 Vibration     8          0.849              1.265              0.675
 Vibration     9          0.879              1.197              0.601
 Vibration    10          0.918              1.114              0.520

 Normal termination of Gaussian 09 at Fri Aug 27 01:01:39 2021.
