 Gaussian 09, Revision E.01,
 Gaussian 09:  EM64L-G09RevE.01 30-Nov-2015

 --------------------------------------------------------------------
 #p opt=(calcfc,qst3,maxcycle=200) freq gen geom=connectivity lc-wpbe
 --------------------------------------------------------------------

 ---------------------------
 HY_H2O_LC-wPBE_PC2_OPT_FREQ
 ---------------------------
 Symbolic Z-matrix:
 Charge =  0 Multiplicity = 1

 ---------------------------
 PY_H2O_LC-wPBE_PC2_OPT_FREQ
 ---------------------------
 Symbolic Z-matrix:
 Charge =  0 Multiplicity = 1

 ---------------
 TST_H2O_LC-wPBE
 ---------------
 Symbolic Z-matrix:
 Charge =  0 Multiplicity = 1

 SCF Done:  E(RLC-wPBE) =  -399.836039172     A.U. after   16 cycles
 SCF Done:  E(RLC-wPBE) =  -399.839351115     A.U. after   14 cycles
 SCF Done:  E(RLC-wPBE) =  -399.843138400     A.U. after   14 cycles
 SCF Done:  E(RLC-wPBE) =  -399.846154367     A.U. after   15 cycles
 SCF Done:  E(RLC-wPBE) =  -399.847869164     A.U. after   14 cycles
 SCF Done:  E(RLC-wPBE) =  -399.850519102     A.U. after   12 cycles
 SCF Done:  E(RLC-wPBE) =  -399.850805447     A.U. after   12 cycles
 SCF Done:  E(RLC-wPBE) =  -399.850850904     A.U. after   13 cycles
 SCF Done:  E(RLC-wPBE) =  -399.850873920     A.U. after   10 cycles
 SCF Done:  E(RLC-wPBE) =  -399.850874053     A.U. after    9 cycles
 SCF Done:  E(RLC-wPBE) =  -399.850874165     A.U. after    7 cycles
 Optimization completed.
    -- Stationary point found.
 Normal termination of Gaussian 09 at Sun Aug 29 00:00:09 2021.

 --------------------------------------------------------------------
 #P Geom=AllCheck Guess=TCheck SCRF=Check GenChk RLC-wPBE/ChkBas Freq
 --------------------------------------------------------------------

 Structure from the checkpoint file:  "TST_H2O_LC-wPBE.chk"
 ---------------------------
 HY_H2O_LC-wPBE_PC2_OPT_FREQ
 ---------------------------
 Charge =  0 Multiplicity = 1

                         Standard orientation:
 ---------------------------------------------------------------------
 Center     Atomic      Atomic             Coordinates (Angstroms)
 Number     Number       Type             X           Y           Z
 ---------------------------------------------------------------------
      1          8           0        1.369641    1.316214   -0.008201
      2          7           0        0.313188   -0.676578   -0.006464
      3          6           0        0.260713    0.669113   -0.001585
      4          6           0       -1.000480    1.301378    0.009480
      5          6           0       -0.797349   -1.423722   -0.006079
      6          6           0       -2.123791    0.533513    0.011233
      7          6           0       -2.037978   -0.866509    0.002844
      8          1           0        2.217475    0.489870   -0.026845
      9          1           0       -1.032655    2.381250    0.013633
     10          1           0       -0.646071   -2.496058   -0.015096
     11          1           0       -3.096811    1.010051    0.018017
     12          1           0       -2.921223   -1.487846    0.001849
     13          8           0        2.720366   -0.642960   -0.082280
     14          1           0        3.246700   -0.852596    0.689757
     15          1           0        1.513516   -0.977296   -0.007582
 ---------------------------------------------------------------------

 SCF Done:  E(RLC-wPBE) =  -399.850874165     A.U. after    1 cycles

 The electronic state is 1-A.
 Alpha  occ. eigenvalues --  -18.95392 -18.93729 -14.23763 -10.22078 -10.17161
 Alpha  occ. eigenvalues --  -10.14574 -10.12233 -10.12213  -1.20450  -1.10385
 Alpha  occ. eigenvalues --   -1.10246  -0.97380  -0.91399  -0.80522  -0.77523
 Alpha  occ. eigenvalues --   -0.69820  -0.68233  -0.63463  -0.61066  -0.59413
 Alpha  occ. eigenvalues --   -0.58967  -0.56034  -0.52452  -0.51337  -0.48706
 Alpha  occ. eigenvalues --   -0.47462  -0.42720  -0.41719  -0.39286  -0.34282
 Alpha virt. eigenvalues --    0.03156   0.07240   0.08735   0.10105   0.11119
 Alpha virt. eigenvalues --    0.12811   0.14136   0.19200   0.20039   0.22022
 Alpha virt. eigenvalues --    0.22936   0.23835   0.24739   0.26041   0.27384

 Mulliken charges:
               1
     1  O   -0.478546
     2  N   -0.355752
     3  C    0.471648
     4  C   -0.136445
     5  C    0.174910
     6  C    0.057875
     7  C   -0.166608
     8  H    0.267221
     9  H    0.059981
    10  H    0.070422
    11  H    0.064759
    12  H    0.049724
    13  O   -0.535727
    14  H    0.211010
    15  H    0.245529
 Sum of Mulliken charges =  -0.00000

 Dipole moment (field-independent basis, Debye):
    X=             -2.9811    Y=             -1.6482    Z=              1.3927  Tot=              3.6801
 Quadrupole moment (field-independent basis, Debye-Ang):
   XX=            -44.4600   YY=            -44.6403   ZZ=            -48.9341
   XY=             -2.6255   XZ=              5.0148   YZ=             -1.3463

  Exact polarizability:  99.917   2.489  80.944   0.938  -0.237  42.711
 Approx polarizability:  96.573   4.477  87.176   0.781  -0.278  48.627

 ******    1 imaginary frequencies (negative Signs) ******

                      1                      2                      3
                      A                      A                      A
 Frequencies --  -1521.5176               113.5249               213.8792
 Red. masses --      1.0603                 5.0957                 5.0855
 Frc consts  --      1.4462                 0.0387                 0.1371
 IR Inten    --    249.7812                 3.1281                 1.9208

                      4                      5                      6
                      A                      A                      A
 Frequencies --    337.3449               414.9850               461.0644
 Red. masses --      5.2737                 3.0401                 2.4624
 Frc consts  --      0.3536                 0.3085                 0.3084
 IR Inten    --      9.9943                 6.3567                33.7474

                      7                      8                      9
                      A                      A                      A
 Frequencies --    499.4258               548.6078               584.2765
 Red. masses --      1.7385                 2.4033                 5.3741
 Frc consts  --      0.2555                 0.4262                 1.0809
 IR Inten    --      0.7964                15.2072                22.7424

                     10                     11                     12
                      A                      A                      A
 Frequencies --    616.6167               666.7069               726.4511
 Red. masses --      1.2928                 4.9163                 7.8337
 Frc consts  --      0.2896                 1.2875                 2.4357
 IR Inten    --     62.5171                18.2429               147.4369

                     13                     14                     15
                      A                      A                      A
 Frequencies --    773.8218               819.0422               891.3069
 Red. masses --      1.6704                 2.0523                 5.6649
 Frc consts  --      0.5893                 0.8111                 2.6515
 IR Inten    --     27.4563                43.4936                 9.8093

                     16                     17                     18
                      A                      A                      A
 Frequencies --    900.8942              1016.3389              1017.2008
 Red. masses --      1.6177                 1.3787                 3.6578
 Frc consts  --      0.7736                 0.8391                 2.2299
 IR Inten    --      7.1064                 1.5157               616.4526

                     19                     20                     21
                      A                      A                      A
 Frequencies --   1047.0023              1069.8266              1160.3637
 Red. masses --      1.3322                 2.0897                 1.3541
 Frc consts  --      0.8604                 1.4092                 1.0742
 IR Inten    --      0.2599                 6.9078               112.7997

                     22                     23                     24
                      A                      A                      A
 Frequencies --   1180.2968              1289.0758              1308.6571
 Red. masses --      1.1272                 1.2861                 2.8838
 Frc consts  --      0.9252                 1.2591                 2.9098
 IR Inten    --     54.4071              2844.5506               597.9351

                     25                     26                     27
                      A                      A                      A
 Frequencies --   1343.8892              1382.1909              1428.3215
 Red. masses --      1.4611                 1.1144                 2.2122
 Frc consts  --      1.5548                 1.2544                 2.6590
 IR Inten    --   1717.5456               466.0560                61.8592

                     28                     29                     30
                      A                      A                      A
 Frequencies --   1450.7767              1525.4410              1600.8449
 Red. masses --      1.1076                 2.7489                 3.0578
 Frc consts  --      1.3736                 3.7687                 4.6170
 IR Inten    --    105.1555                73.9639               188.5313

                     31                     32                     33
                      A                      A                      A
 Frequencies --   1632.0916              1726.2364              1747.8693
 Red. masses --      3.3598                 1.5060                 5.9058
 Frc consts  --      5.2729                 2.6441                10.6303
 IR Inten    --     55.7047               298.5157               263.0255

                     34                     35                     36
                      A                      A                      A
 Frequencies --   1956.7262              3225.5813              3234.1408
 Red. masses --      1.0645                 1.0900                 1.0924
 Frc consts  --      2.4013                 6.6820                 6.7319
 IR Inten    --     27.2629                 4.4593                 3.5720

                     37                     38                     39
                      A                      A                      A
 Frequencies --   3263.8001              3267.1193              3943.1077
 Red. masses --      1.0956                 1.0984                 1.0659
 Frc consts  --      6.8763                 6.9076                 9.7641
 IR Inten    --      1.7306                 0.3911                54.6581

 - Thermochemistry -
 -------------------
 Temperature   298.150 Kelvin.  Pressure   1.00000 Atm.
 Atom     1 has atomic number  8 and mass  15.99491

 Molecular mass:   113.04768 amu.
 Principal axes and moments of inertia in atomic units:
                           1         2         3
     Eigenvalues --   431.640621115.749481543.29134
           X            0.99987  -0.01433   0.00673
           Y            0.01436   0.99989  -0.00446
           Z           -0.00666   0.00455   0.99997
 This molecule is an asymmetric top.
 Rotational symmetry number  1.
 Rotational temperatures (Kelvin)      0.20066     0.07763     0.05612
 Rotational constants (GHZ):           4.18112     1.61751     1.16941
    1 imaginary frequencies ignored.
 Zero-point vibrational energy     301368.3 (Joules/Mol)
                                   72.02875 (Kcal/Mol)
 Warning -- explicit consideration of   9 degrees of freedom as
           vibrations may cause significant error
 Vibrational temperatures:    163.34   307.72   485.36   597.07   663.37
          (Kelvin)            718.56   789.32   840.64   887.17   959.24
                             1045.20  1113.36  1178.42  1282.39  1296.18
                             1462.28  1463.52  1506.40  1539.24  1669.50
                             1698.18  1854.69  1882.86  1933.55  1988.66
                             2055.03  2087.34  2194.77  2303.26  2348.21
                             2483.67  2514.79  2815.29  4640.89  4653.20
                             4695.87  4700.65  5673.25

 Zero-point correction=                           0.114785 (Hartree/Particle)
 Thermal correction to Energy=                    0.121257
 Thermal correction to Enthalpy=                  0.122201
 Thermal correction to Gibbs Free Energy=         0.084042
 Sum of electronic and zero-point Energies=           -399.736089
 Sum of electronic and thermal Energies=              -399.729617
 Sum of electronic and thermal Enthalpies=            -399.728673
 Sum of electronic and thermal Free Energies=         -399.766832

                     E (Thermal)             CV                S
                      KCal/Mol        Cal/Mol-Kelvin    Cal/Mol-Kelvin
 Total                   76.090             25.323             80.312
 Electronic               0.000              0.000              0.000
 Translational            0.889              2.981             40.084
 Rotational               0.889              2.981             28.099
 Vibrational             74.313             19.361             12.130
 Vibration     1          0.607              1.938              3.208
 Vibration     2          0.644              1.820              2.010
 Vibration     3          0.718              1.601              1.225
 Vibration     4          0.778              1.438              0.909
 Vibration     5          0.819              1.336              0.763
 Vibration     6          0.855              1.251              0.660
 Vibration     7          0.904              1.143              0.547
 Vibration     8          0.941              1.065              0.478
 Vibration     9          0.976              0.997              0.422

 Optimization completed.
    -- Stationary point found.
 Normal termination of Gaussian 09 at Sun Aug 29 00:01:30 2021.
