 Gaussian 09, Revision E.01,
 Gaussian 09:  EM64L-G09RevE.01 30-Nov-2015

 --------------------
 #p opt freq M06L/gen
 --------------------

 ------------------------
 HY_H2O_M06L_PC2_OPT_FREQ
 ------------------------
 Symbolic Z-matrix:
 Charge =  0 Multiplicity = 1

 SCF Done:  E(RM06L) =  -400.060133601     A.U. after   17 cycles
 SCF Done:  E(RM06L) =  -400.060351115     A.U. after   13 cycles
 SCF Done:  E(RM06L) =  -400.060362333     A.U. after    8 cycles
 SCF Done:  E(RM06L) =  -400.060379690     A.U. after   13 cycles
 SCF Done:  E(RM06L) =  -400.060391891     A.U. after   12 cycles
 SCF Done:  E(RM06L) =  -400.060399586     A.U. after   12 cycles
 SCF Done:  E(RM06L) =  -400.060401017     A.U. after    8 cycles
 SCF Done:  E(RM06L) =  -400.060401357     A.U. after    7 cycles
 SCF Done:  E(RM06L) =  -400.060401425     A.U. after    7 cycles
 Optimization completed.
    -- Stationary point found.
 Normal termination of Gaussian 09 at Fri Aug 27 00:29:48 2021.

 -----------------------------------------------------------------
 #P Geom=AllCheck Guess=TCheck SCRF=Check GenChk RM06L/ChkBas Freq
 -----------------------------------------------------------------

 Structure from the checkpoint file:  "HY_H2O_M06L_PC2_OPT_FREQ.chk"
 ------------------------
 HY_H2O_M06L_PC2_OPT_FREQ
 ------------------------
 Charge =  0 Multiplicity = 1

                         Standard orientation:
 ---------------------------------------------------------------------
 Center     Atomic      Atomic             Coordinates (Angstroms)
 Number     Number       Type             X           Y           Z
 ---------------------------------------------------------------------
      1          8           0        1.213754    1.435542   -0.002208
      2          7           0        0.304268   -0.673367   -0.004620
      3          6           0        0.137762    0.648691    0.000134
      4          6           0       -1.123354    1.253395    0.007542
      5          6           0       -0.789943   -1.441255   -0.004748
      6          6           0       -2.232458    0.440937    0.008310
      7          6           0       -2.074168   -0.942189    0.001749
      8          1           0        2.016723    0.874991   -0.014818
      9          1           0       -1.194849    2.329318    0.010829
     10          1           0       -0.612291   -2.509706   -0.010995
     11          1           0       -3.221100    0.878029    0.013162
     12          1           0       -2.922314   -1.607963    0.000940
     13          8           0        3.098672   -0.578959   -0.087069
     14          1           0        3.567987   -0.844714    0.701920
     15          1           0        2.229530   -1.016531   -0.032407
 ---------------------------------------------------------------------

 SCF Done:  E(RM06L) =  -400.060401425     A.U. after    1 cycles

 The electronic state is 1-A.
 Alpha  occ. eigenvalues --  -18.98328 -18.96309 -14.17210 -10.14233 -10.08831
 Alpha  occ. eigenvalues --  -10.06883 -10.05409 -10.05181  -1.04345  -0.98676
 Alpha  occ. eigenvalues --   -0.90630  -0.77551  -0.72302  -0.61283  -0.59382
 Alpha  occ. eigenvalues --   -0.51724  -0.49946  -0.47440  -0.44832  -0.41183
 Alpha  occ. eigenvalues --   -0.40418  -0.37829  -0.36728  -0.35375  -0.33069
 Alpha  occ. eigenvalues --   -0.32290  -0.28123  -0.27172  -0.24735  -0.21640
 Alpha virt. eigenvalues --   -0.05512  -0.02571   0.02906   0.03802   0.05229
 Alpha virt. eigenvalues --    0.06864   0.08329   0.11064   0.11112   0.12870
 Alpha virt. eigenvalues --    0.15087   0.18040   0.18510   0.19330   0.19963

 Mulliken charges:
               1
     1  O   -0.484621
     2  N   -0.637655
     3  C    0.726530
     4  C   -0.082516
     5  C    0.261261
     6  C    0.163557
     7  C   -0.102969
     8  H    0.231914
     9  H   -0.023502
    10  H   -0.002083
    11  H   -0.022616
    12  H   -0.044743
    13  O   -0.465456
    14  H    0.240715
    15  H    0.242184
 Sum of Mulliken charges =  -0.00000

 Dipole moment (field-independent basis, Debye):
    X=             -1.5331    Y=             -1.1704    Z=              1.3251  Tot=              2.3401
 Quadrupole moment (field-independent basis, Debye-Ang):
   XX=            -41.9395   YY=            -44.6548   ZZ=            -48.0560
   XY=             -2.5623   XZ=              5.2802   YZ=             -1.2781

  Exact polarizability:  97.236   2.625  83.541   0.888  -0.132  43.359
 Approx polarizability: 167.559   9.823 160.110   1.079  -0.353  67.426

                      1                      2                      3
                      A                      A                      A
 Frequencies --     61.7907               161.3547               203.7831
 Red. masses --      5.1042                 4.9218                 7.6456
 Frc consts  --      0.0115                 0.0755                 0.1871
 IR Inten    --      3.6948                18.8225                 6.1337

                      4                      5                      6
                      A                      A                      A
 Frequencies --    213.0832               297.8096               367.4430
 Red. masses --      4.4369                 1.0833                 1.1752
 Frc consts  --      0.1187                 0.0566                 0.0935
 IR Inten    --      2.4301               105.0345                61.7153

                      7                      8                      9
                      A                      A                      A
 Frequencies --    428.8973               476.1892               536.1769
 Red. masses --      3.2091                 4.6455                 2.5925
 Frc consts  --      0.3478                 0.6206                 0.4391
 IR Inten    --      9.4190                30.5929                 8.8766

                     10                     11                     12
                      A                      A                      A
 Frequencies --    576.6520               645.9118               738.2873
 Red. masses --      6.8171                 6.2722                 1.1161
 Frc consts  --      1.3356                 1.5418                 0.3584
 IR Inten    --      1.4009                 0.8792               204.6152

                     13                     14                     15
                      A                      A                      A
 Frequencies --    760.4069               802.4409               819.7471
 Red. masses --      1.8704                 2.1948                 1.0895
 Frc consts  --      0.6372                 0.8326                 0.4313
 IR Inten    --     29.2034                53.5319                93.0211

                     16                     17                     18
                      A                      A                      A
 Frequencies --    870.2708               889.9575               985.4669
 Red. masses --      5.8221                 1.3662                 1.3872
 Frc consts  --      2.5980                 0.6375                 0.7937
 IR Inten    --      9.0066                 0.0911                 0.4903

                     19                     20                     21
                      A                      A                      A
 Frequencies --   1009.6518              1016.3586              1069.8242
 Red. masses --      1.2872                 6.9062                 2.0611
 Frc consts  --      0.7731                 4.2032                 1.3899
 IR Inten    --      0.1412                12.8316                 4.3969

                     22                     23                     24
                      A                      A                      A
 Frequencies --   1127.6943              1173.0367              1270.9847
 Red. masses --      1.5708                 1.1071                 1.6812
 Frc consts  --      1.1769                 0.8976                 1.6001
 IR Inten    --      2.8548                12.6341                88.4492

                     25                     26                     27
                      A                      A                      A
 Frequencies --   1334.8436              1357.9756              1425.0269
 Red. masses --      2.9377                 3.6775                 1.4420
 Frc consts  --      3.0840                 3.9956                 1.7253
 IR Inten    --      5.3223                86.7590               109.3213

                     28                     29                     30
                      A                      A                      A
 Frequencies --   1512.5507              1521.4101              1628.5154
 Red. masses --      2.7509                 2.0851                 4.3148
 Frc consts  --      3.7080                 2.8436                 6.7421
 IR Inten    --    109.7363                62.8578                78.7077

                     31                     32                     33
                      A                      A                      A
 Frequencies --   1660.3510              1681.6177              3169.3475
 Red. masses --      3.4434                 1.2093                 1.0889
 Frc consts  --      5.5929                 2.0149                 6.4440
 IR Inten    --    142.5526                31.5413                19.8761

                     34                     35                     36
                      A                      A                      A
 Frequencies --   3199.5827              3218.9632              3226.6155
 Red. masses --      1.0875                 1.0936                 1.0970
 Frc consts  --      6.5593                 6.6765                 6.7289
 IR Inten    --      8.4475                15.7819                 5.3769

                     37                     38                     39
                      A                      A                      A
 Frequencies --   3421.8598              3551.9402              3916.0978
 Red. masses --      1.0673                 1.0604                 1.0688
 Frc consts  --      7.3634                 7.8823                 9.6568
 IR Inten    --    375.0951               989.7205                75.8043

 - Thermochemistry -
 -------------------
 Temperature   298.150 Kelvin.  Pressure   1.00000 Atm.
 Atom     1 has atomic number  8 and mass  15.99491

 Molecular mass:   113.04768 amu.
 Principal axes and moments of inertia in atomic units:
                           1         2         3
     Eigenvalues --   445.503271272.016081713.23276
           X            0.99990  -0.01234   0.00660
           Y            0.01237   0.99991  -0.00434
           Z           -0.00655   0.00442   0.99997
 This molecule is an asymmetric top.
 Rotational symmetry number  1.
 Warning -- assumption of classical behavior for rotation
           may cause significant error
 Rotational temperatures (Kelvin)      0.19442     0.06809     0.05056
 Rotational constants (GHZ):           4.05102     1.41880     1.05341
 Zero-point vibrational energy     313002.4 (Joules/Mol)
                                   74.80937 (Kcal/Mol)
 Warning -- explicit consideration of  10 degrees of freedom as
           vibrations may cause significant error
 Vibrational temperatures:     88.90   232.15   293.20   306.58   428.48
          (Kelvin)            528.67   617.09   685.13   771.44   829.67
                              929.32  1062.23  1094.05  1154.53  1179.43
                             1252.12  1280.45  1417.87  1452.66  1462.31
                             1539.24  1622.50  1687.74  1828.66  1920.54
                             1953.82  2050.29  2176.22  2188.97  2343.07
                             2388.87  2419.47  4559.98  4603.48  4631.36
                             4642.37  4923.29  5110.44  5634.38

 Zero-point correction=                           0.119216 (Hartree/Particle)
 Thermal correction to Energy=                    0.127065
 Thermal correction to Enthalpy=                  0.128010
 Thermal correction to Gibbs Free Energy=         0.086755
 Sum of electronic and zero-point Energies=           -399.941185
 Sum of electronic and thermal Energies=              -399.933336
 Sum of electronic and thermal Enthalpies=            -399.932392
 Sum of electronic and thermal Free Energies=         -399.973647

                     E (Thermal)             CV                S
                      KCal/Mol        Cal/Mol-Kelvin    Cal/Mol-Kelvin
 Total                   79.735             29.083             86.828
 Electronic               0.000              0.000              0.000
 Translational            0.889              2.981             40.084
 Rotational               0.889              2.981             28.364
 Vibrational             77.957             23.122             18.380
 Vibration     1          0.597              1.973              4.399
 Vibration     2          0.622              1.890              2.534
 Vibration     3          0.639              1.835              2.099
 Vibration     4          0.644              1.821              2.017
 Vibration     5          0.691              1.678              1.429
 Vibration     6          0.740              1.539              1.090
 Vibration     7          0.790              1.407              0.862
 Vibration     8          0.833              1.303              0.720
 Vibration     9          0.891              1.170              0.574
 Vibration    10          0.933              1.082              0.492

 Normal termination of Gaussian 09 at Fri Aug 27 00:31:03 2021.
