 Gaussian 09, Revision E.01,
 Gaussian 09:  EM64L-G09RevE.01 30-Nov-2015

 ----------------------------------------------------------------------
 #p opt=(calcfc,qst3,MaxCycle=200,cartesian) freq M06L/gen SCF(novaracc
 ,noincfock) int=acc2e=12
 ----------------------------------------------------------------------

 ------------------------
 HY_H2O_M06L_PC2_OPT_FREQ
 ------------------------
 Symbolic Z-matrix:
 Charge =  0 Multiplicity = 1

 ------------------------
 PY_H2O_M06L_PC2_OPT_FREQ
 ------------------------
 Symbolic Z-matrix:
 Charge =  0 Multiplicity = 1

 ------------
 TST_H2O_M06L
 ------------
 Symbolic Z-matrix:
 Charge =  0 Multiplicity = 1

 SCF Done:  E(RM06L) =  -399.980709879     A.U. after   14 cycles
 SCF Done:  E(RM06L) =  -399.970480537     A.U. after   12 cycles
 SCF Done:  E(RM06L) =  -399.961125168     A.U. after   12 cycles
 SCF Done:  E(RM06L) =  -399.953940725     A.U. after   12 cycles
 SCF Done:  E(RM06L) =  -399.950355951     A.U. after   12 cycles
 SCF Done:  E(RM06L) =  -399.975540862     A.U. after   12 cycles
 SCF Done:  E(RM06L) =  -400.007630333     A.U. after   12 cycles
 SCF Done:  E(RM06L) =  -400.025846532     A.U. after   12 cycles
 SCF Done:  E(RM06L) =  -400.025790115     A.U. after   12 cycles
 SCF Done:  E(RM06L) =  -400.025081428     A.U. after   12 cycles
 SCF Done:  E(RM06L) =  -400.035937268     A.U. after    9 cycles
 SCF Done:  E(RM06L) =  -400.035939146     A.U. after    8 cycles
 SCF Done:  E(RM06L) =  -400.035941412     A.U. after    8 cycles
 SCF Done:  E(RM06L) =  -400.035943510     A.U. after    8 cycles
 SCF Done:  E(RM06L) =  -400.035944110     A.U. after    9 cycles
 SCF Done:  E(RM06L) =  -400.035944240     A.U. after    7 cycles
 SCF Done:  E(RM06L) =  -400.035944379     A.U. after    8 cycles
 SCF Done:  E(RM06L) =  -400.035944489     A.U. after    7 cycles
 SCF Done:  E(RM06L) =  -400.035944645     A.U. after    8 cycles
 Optimization completed.
    -- Stationary point found.
 Normal termination of Gaussian 09 at Sat Aug 28 14:07:03 2021.

 -----------------------------------------------------------------
 #P Geom=AllCheck Guess=TCheck SCRF=Check GenChk RM06L/ChkBas Freq
 -----------------------------------------------------------------

 Structure from the checkpoint file:  "TST_H2O_M06L.chk"
 ------------------------
 HY_H2O_M06L_PC2_OPT_FREQ
 ------------------------
 Charge =  0 Multiplicity = 1

                         Standard orientation:
 ---------------------------------------------------------------------
 Center     Atomic      Atomic             Coordinates (Angstroms)
 Number     Number       Type             X           Y           Z
 ---------------------------------------------------------------------
      1          8           0        1.373588    1.320717   -0.009479
      2          7           0        0.313653   -0.688475   -0.009597
      3          6           0        0.264521    0.676051   -0.003139
      4          6           0       -0.999786    1.304365    0.009761
      5          6           0       -0.801996   -1.427597   -0.007255
      6          6           0       -2.132952    0.535307    0.012472
      7          6           0       -2.050009   -0.862480    0.003885
      8          1           0        2.247007    0.464370   -0.026221
      9          1           0       -1.035584    2.381862    0.014459
     10          1           0       -0.658791   -2.499563   -0.016669
     11          1           0       -3.102561    1.014198    0.020532
     12          1           0       -2.931483   -1.481565    0.004104
     13          8           0        2.733476   -0.643997   -0.082684
     14          1           0        3.208225   -0.837763    0.724465
     15          1           0        1.542437   -0.989854   -0.010525
 ---------------------------------------------------------------------

 SCF Done:  E(RM06L) =  -400.035944644     A.U. after    1 cycles

 The electronic state is 1-A.
 Alpha  occ. eigenvalues --  -18.94862 -18.94627 -14.19487 -10.14519 -10.10096
 Alpha  occ. eigenvalues --  -10.07321 -10.05573 -10.05489  -1.02557  -0.96020
 Alpha  occ. eigenvalues --   -0.91333  -0.78115  -0.72432  -0.61895  -0.59233
 Alpha  occ. eigenvalues --   -0.51571  -0.50286  -0.46168  -0.44026  -0.42327
 Alpha  occ. eigenvalues --   -0.40916  -0.39777  -0.36277  -0.35429  -0.32349
 Alpha  occ. eigenvalues --   -0.31750  -0.28094  -0.26709  -0.23944  -0.20931
 Alpha virt. eigenvalues --   -0.06436  -0.02443   0.02778   0.04083   0.05108
 Alpha virt. eigenvalues --    0.06809   0.08410   0.10404   0.12460   0.13517
 Alpha virt. eigenvalues --    0.15191   0.17727   0.18100   0.19103   0.19738

 Mulliken charges:
               1
     1  O   -0.643717
     2  N   -0.506078
     3  C    0.678344
     4  C   -0.076426
     5  C    0.227090
     6  C    0.160161
     7  C   -0.094334
     8  H    0.355919
     9  H   -0.018209
    10  H    0.014018
    11  H   -0.019998
    12  H   -0.038167
    13  O   -0.603842
    14  H    0.229956
    15  H    0.335283
 Sum of Mulliken charges =  -0.00000

 Dipole moment (field-independent basis, Debye):
    X=             -2.1961    Y=             -1.6491    Z=              1.3532  Tot=              3.0616
 Quadrupole moment (field-independent basis, Debye-Ang):
   XX=            -43.9487   YY=            -45.0524   ZZ=            -47.9163
   XY=             -2.6156   XZ=              4.8535   YZ=             -1.3038

  Exact polarizability: 104.134   2.593  83.650   0.943  -0.214  42.971
 Approx polarizability: 182.890  14.365 164.049   0.993  -0.322  67.283

 ******    1 imaginary frequencies (negative Signs) ******

                      1                      2                      3
                      A                      A                      A
 Frequencies --  -1440.1397               106.0721               210.4271
 Red. masses --      1.0586                 5.2436                 5.1868
 Frc consts  --      1.2936                 0.0348                 0.1353
 IR Inten    --    298.0156                 3.3487                 1.5783

                      4                      5                      6
                      A                      A                      A
 Frequencies --    337.3120               413.1296               464.4642
 Red. masses --      5.4224                 3.3145                 5.1559
 Frc consts  --      0.3635                 0.3333                 0.6553
 IR Inten    --      3.8795                 3.5840                13.7065

                      7                      8                      9
                      A                      A                      A
 Frequencies --    517.5664               547.7143               583.8709
 Red. masses --      1.5417                 1.7484                 7.1780
 Frc consts  --      0.2433                 0.3090                 1.4417
 IR Inten    --     16.3391                18.8366                 8.1542

                     10                     11                     12
                      A                      A                      A
 Frequencies --    632.3067               652.0840               722.4607
 Red. masses --      1.3889                 3.3462                 7.6410
 Frc consts  --      0.3272                 0.8383                 2.3498
 IR Inten    --     49.3470                26.3649                12.9691

                     13                     14                     15
                      A                      A                      A
 Frequencies --    761.3040               800.7027               870.7928
 Red. masses --      2.0230                 1.9560                 5.5957
 Frc consts  --      0.6908                 0.7389                 2.5000
 IR Inten    --     13.5519                42.6932                19.4562

                     16                     17                     18
                      A                      A                      A
 Frequencies --    880.1777               974.3101              1009.3863
 Red. masses --      1.4805                 1.3604                 1.2930
 Frc consts  --      0.6757                 0.7609                 0.7762
 IR Inten    --      4.0681                 0.9622                 2.9751

                     19                     20                     21
                      A                      A                      A
 Frequencies --   1012.1955              1057.3265              1147.6485
 Red. masses --      3.9660                 2.3038                 1.4637
 Frc consts  --      2.3941                 1.5174                 1.1358
 IR Inten    --    462.7827                 2.6746                69.8212

                     22                     23                     24
                      A                      A                      A
 Frequencies --   1179.3375              1280.9170              1296.3784
 Red. masses --      1.0981                 1.5480                 1.6601
 Frc consts  --      0.8999                 1.4965                 1.6438
 IR Inten    --     18.6001              2210.9924              2639.2827

                     25                     26                     27
                      A                      A                      A
 Frequencies --   1337.1460              1397.9931              1411.8698
 Red. masses --      1.8840                 1.1502                 2.1052
 Frc consts  --      1.9847                 1.3244                 2.4725
 IR Inten    --    593.2636               177.4474                39.6847

                     28                     29                     30
                      A                      A                      A
 Frequencies --   1475.1814              1501.8900              1559.8176
 Red. masses --      1.0875                 2.4506                 2.6955
 Frc consts  --      1.3943                 3.2569                 3.8640
 IR Inten    --    120.5155                32.2942               124.2367

                     31                     32                     33
                      A                      A                      A
 Frequencies --   1587.5287              1676.8601              1698.3640
 Red. masses --      4.7292                 1.6599                 2.9446
 Frc consts  --      7.0223                 2.7500                 5.0043
 IR Inten    --     35.8838               173.6113               328.5825

                     34                     35                     36
                      A                      A                      A
 Frequencies --   1951.2771              3187.4943              3199.2031
 Red. masses --      1.0507                 1.0895                 1.0883
 Frc consts  --      2.3571                 6.5221                 6.5625
 IR Inten    --      2.6713                10.9097                10.2988

                     37                     38                     39
                      A                      A                      A
 Frequencies --   3225.4456              3235.1066              3891.9273
 Red. masses --      1.0937                 1.0962                 1.0660
 Frc consts  --      6.7038                 6.7595                 9.5132
 IR Inten    --      7.0387                 6.5411                33.6291

 - Thermochemistry -
 -------------------
 Temperature   298.150 Kelvin.  Pressure   1.00000 Atm.
 Atom     1 has atomic number  8 and mass  15.99491

 Molecular mass:   113.04768 amu.
 Principal axes and moments of inertia in atomic units:
                           1         2         3
     Eigenvalues --   434.327761125.099191554.96186
           X            0.99988  -0.01422   0.00688
           Y            0.01425   0.99989  -0.00452
           Z           -0.00682   0.00462   0.99997
 This molecule is an asymmetric top.
 Rotational symmetry number  1.
 Warning -- assumption of classical behavior for rotation
           may cause significant error
 Rotational temperatures (Kelvin)      0.19942     0.07698     0.05570
 Rotational constants (GHZ):           4.15525     1.60407     1.16063
    1 imaginary frequencies ignored.
 Zero-point vibrational energy     297840.2 (Joules/Mol)
                                   71.18551 (Kcal/Mol)
 Warning -- explicit consideration of   8 degrees of freedom as
           vibrations may cause significant error
 Vibrational temperatures:    152.61   302.76   485.32   594.40   668.26
          (Kelvin)            744.66   788.04   840.06   909.75   938.20
                             1039.46  1095.35  1152.03  1252.88  1266.38
                             1401.81  1452.28  1456.32  1521.26  1651.21
                             1696.80  1842.95  1865.20  1923.85  2011.40
                             2031.36  2122.45  2160.88  2244.23  2284.10
                             2412.62  2443.56  2807.45  4586.09  4602.93
                             4640.69  4654.59  5599.61

 Zero-point correction=                           0.113441 (Hartree/Particle)
 Thermal correction to Energy=                    0.119955
 Thermal correction to Enthalpy=                  0.120899
 Thermal correction to Gibbs Free Energy=         0.082629
 Sum of electronic and zero-point Energies=           -399.922503
 Sum of electronic and thermal Energies=              -399.915990
 Sum of electronic and thermal Enthalpies=            -399.915046
 Sum of electronic and thermal Free Energies=         -399.953316

                     E (Thermal)             CV                S
                      KCal/Mol        Cal/Mol-Kelvin    Cal/Mol-Kelvin
 Total                   75.273             25.560             80.546
 Electronic               0.000              0.000              0.000
 Translational            0.889              2.981             40.084
 Rotational               0.889              2.981             28.121
 Vibrational             73.495             19.598             12.341
 Vibration     1          0.605              1.944              3.340
 Vibration     2          0.643              1.825              2.040
 Vibration     3          0.718              1.601              1.225
 Vibration     4          0.777              1.442              0.916
 Vibration     5          0.822              1.329              0.753
 Vibration     6          0.873              1.211              0.616
 Vibration     7          0.903              1.145              0.549
 Vibration     8          0.941              1.066              0.478

 Normal termination of Gaussian 09 at Sat Aug 28 14:08:34 2021.
