 Gaussian 09, Revision E.01,
 Gaussian 09:  EM64L-G09RevE.01 30-Nov-2015

 ------------------------
 #p opt freq TPSSTPSS/gen
 ------------------------

 ------------------------
 HY_TPSSTPSS_PC2_OPT_FREQ
 ------------------------
 Symbolic Z-matrix:
 Charge =  0 Multiplicity = 1

 SCF Done:  E(RTPSS-TPSS) =  -323.700446353     A.U. after   15 cycles
 SCF Done:  E(RTPSS-TPSS) =  -323.701630606     A.U. after   12 cycles
 SCF Done:  E(RTPSS-TPSS) =  -323.701679118     A.U. after   10 cycles
 SCF Done:  E(RTPSS-TPSS) =  -323.701683252     A.U. after    8 cycles
 Optimization completed.
    -- Stationary point found.
 Normal termination of Gaussian 09 at Fri Aug 27 00:04:16 2021.

 ---------------------------------------------------------------------
 #P Geom=AllCheck Guess=TCheck SCRF=Check GenChk RTPSSTPSS/ChkBas Freq
 ---------------------------------------------------------------------

 Structure from the checkpoint file:  "HY_TPSSTPSS_PC2_OPT_FREQ.chk"
 ------------------------
 HY_TPSSTPSS_PC2_OPT_FREQ
 ------------------------
 Charge =  0 Multiplicity = 1

                         Standard orientation:
 ---------------------------------------------------------------------
 Center     Atomic      Atomic             Coordinates (Angstroms)
 Number     Number       Type             X           Y           Z
 ---------------------------------------------------------------------
      1          8           0       -0.005367    2.262770    0.000000
      2          7           0       -1.184268    0.294180    0.000000
      3          6           0       -0.000000    0.902392    0.000000
      4          6           0        1.230691    0.232017    0.000000
      5          6           0       -1.189187   -1.050230    0.000000
      6          6           0        1.199355   -1.154675    0.000000
      7          6           0       -0.032156   -1.819426    0.000000
      8          1           0       -0.945014    2.520493    0.000000
      9          1           0        2.158045    0.792467    0.000000
     10          1           0       -2.171171   -1.516290    0.000000
     11          1           0        2.128176   -1.716603    0.000000
     12          1           0       -0.089444   -2.901954    0.000000
 ---------------------------------------------------------------------

 SCF Done:  E(RTPSS-TPSS) =  -323.701683252     A.U. after    1 cycles

 The electronic state is 1-A'.
 Alpha  occ. eigenvalues --  -18.91845 -14.10201 -10.08199 -10.02953 -10.01324
 Alpha  occ. eigenvalues --  -10.00192  -9.99707  -1.00858  -0.87628  -0.75255
 Alpha  occ. eigenvalues --   -0.70384  -0.59946  -0.58107  -0.50873  -0.47326
 Alpha  occ. eigenvalues --   -0.44225  -0.40902  -0.39649  -0.37437  -0.36162
 Alpha  occ. eigenvalues --   -0.33242  -0.31851  -0.26700  -0.24022  -0.21825
 Alpha virt. eigenvalues --   -0.06139  -0.03520   0.01176   0.01868   0.03609
 Alpha virt. eigenvalues --    0.05607   0.07357   0.09759   0.12343   0.14223
 Alpha virt. eigenvalues --    0.14952   0.15531   0.16767   0.18350   0.18973

 Mulliken charges:
               1
     1  O   -0.393620
     2  N   -0.434367
     3  C    0.521431
     4  C   -0.132699
     5  C    0.142814
     6  C    0.054093
     7  C   -0.150099
     8  H    0.215491
     9  H    0.041357
    10  H    0.054231
    11  H    0.049764
    12  H    0.031603
 Sum of Mulliken charges =  -0.00000

 Dipole moment (field-independent basis, Debye):
    X=              0.4979    Y=             -1.1865    Z=             -0.0000  Tot=              1.2867
 Quadrupole moment (field-independent basis, Debye-Ang):
   XX=            -37.8778   YY=            -36.8734   ZZ=            -42.9335
   XY=             -1.9641   XZ=              0.0000   YZ=              0.0000

  Exact polarizability:  75.719  -0.122  88.288  -0.000   0.000  38.119
 Approx polarizability: 149.675   2.052 171.702   0.000  -0.000  62.613

                      1                      2                      3
                     A"                     A'                     A"
 Frequencies --    206.4699               402.6729               411.0477
 Red. masses --      4.9821                 4.1859                 3.5644
 Frc consts  --      0.1251                 0.3999                 0.3548
 IR Inten    --      0.7947                16.5542                 0.3705

                      4                      5                      6
                     A"                     A'                     A"
 Frequencies --    494.8570               550.0138               558.9775
 Red. masses --      1.5970                 7.0214                 1.5323
 Frc consts  --      0.2304                 1.2515                 0.2821
 IR Inten    --     66.9699                 0.5300                42.7728

                      7                      8                      9
                     A'                     A"                     A"
 Frequencies --    622.2979               741.6970               780.0478
 Red. masses --      7.0577                 2.4044                 1.8276
 Frc consts  --      1.6103                 0.7793                 0.6552
 IR Inten    --      2.5666                 3.1124                57.4422

                     10                     11                     12
                     A'                     A"                     A"
 Frequencies --    842.6559               866.7616               957.8934
 Red. masses --      5.8519                 1.3390                 1.3909
 Frc consts  --      2.4482                 0.5927                 0.7519
 IR Inten    --     14.1719                 0.8255                 0.4496

                     13                     14                     15
                     A"                     A'                     A'
 Frequencies --    985.0168               987.0132              1046.0086
 Red. masses --      1.2795                 6.8604                 2.1272
 Frc consts  --      0.7315                 3.9377                 1.3713
 IR Inten    --      0.0077                 6.8770                 3.3368

                     16                     17                     18
                     A'                     A'                     A'
 Frequencies --   1090.3493              1154.8211              1177.4620
 Red. masses --      1.6758                 1.1502                 1.3103
 Frc consts  --      1.1739                 0.9038                 1.0703
 IR Inten    --     28.8345                38.8457               129.8809

                     19                     20                     21
                     A'                     A'                     A'
 Frequencies --   1292.9123              1306.0525              1355.2999
 Red. masses --      3.4686                 4.6638                 1.4275
 Frc consts  --      3.4162                 4.6872                 1.5449
 IR Inten    --     73.3301                25.9881                23.8409

                     22                     23                     24
                     A'                     A'                     A'
 Frequencies --   1465.7919              1485.1013              1589.7965
 Red. masses --      2.5886                 2.1523                 5.4151
 Frc consts  --      3.2769                 2.7968                 8.0638
 IR Inten    --     76.7401                80.7568                78.9790

                     25                     26                     27
                     A'                     A'                     A'
 Frequencies --   1613.9193              3122.2980              3142.4460
 Red. masses --      5.2323                 1.0886                 1.0880
 Frc consts  --      8.0298                 6.2527                 6.3303
 IR Inten    --     69.4635                16.5628                 8.6922

                     28                     29                     30
                     A'                     A'                     A'
 Frequencies --   3165.9298              3173.0146              3650.5084
 Red. masses --      1.0933                 1.0958                 1.0639
 Frc consts  --      6.4566                 6.5000                 8.3533
 IR Inten    --     17.7993                 4.1657                56.6729

 - Thermochemistry -
 -------------------
 Temperature   298.150 Kelvin.  Pressure   1.00000 Atm.
 Atom     1 has atomic number  8 and mass  15.99491

 Molecular mass:    95.03711 amu.
 Principal axes and moments of inertia in atomic units:
                           1         2         3
     Eigenvalues --   310.14351 654.67202 964.81553
           X           -0.03447   0.99941   0.00000
           Y            0.99941   0.03447   0.00000
           Z            0.00000   0.00000   1.00000
 This molecule is an asymmetric top.
 Rotational symmetry number  1.
 Rotational temperatures (Kelvin)      0.27927     0.13230     0.08977
 Rotational constants (GHZ):           5.81905     2.75671     1.87056
 Zero-point vibrational energy     240683.5 (Joules/Mol)
                                   57.52473 (Kcal/Mol)
 Warning -- explicit consideration of   6 degrees of freedom as
           vibrations may cause significant error
 Vibrational temperatures:    297.06   579.36   591.41   711.99   791.35
          (Kelvin)            804.24   895.35  1067.14  1122.31  1212.39
                             1247.08  1378.19  1417.22  1420.09  1504.97
                             1568.77  1661.53  1694.10  1860.21  1879.12
                             1949.97  2108.94  2136.73  2287.36  2322.07
                             4492.28  4521.27  4555.06  4565.25  5252.26

 Zero-point correction=                           0.091671 (Hartree/Particle)
 Thermal correction to Energy=                    0.096984
 Thermal correction to Enthalpy=                  0.097929
 Thermal correction to Gibbs Free Energy=         0.062803
 Sum of electronic and zero-point Energies=           -323.610012
 Sum of electronic and thermal Energies=              -323.604699
 Sum of electronic and thermal Enthalpies=            -323.603755
 Sum of electronic and thermal Free Energies=         -323.638880

                     E (Thermal)             CV                S
                      KCal/Mol        Cal/Mol-Kelvin    Cal/Mol-Kelvin
 Total                   60.859             20.748             73.928
 Electronic               0.000              0.000              0.000
 Translational            0.889              2.981             39.566
 Rotational               0.889              2.981             26.774
 Vibrational             59.081             14.787              7.588
 Vibration     1          0.641              1.831              2.075
 Vibration     2          0.768              1.464              0.953
 Vibration     3          0.775              1.446              0.923
 Vibration     4          0.850              1.261              0.671
 Vibration     5          0.905              1.140              0.544
 Vibration     6          0.915              1.120              0.526

 Optimization completed.
    -- Stationary point found.
 Normal termination of Gaussian 09 at Fri Aug 27 00:04:58 2021.
