 Gaussian 09, Revision E.01,
 Gaussian 09:  EM64L-G09RevE.01 30-Nov-2015

 ------------------------
 #p opt freq TPSSTPSS/gen
 ------------------------

 ------------------------
 PY_TPSSTPSS_PC2_OPT_FREQ
 ------------------------
 Symbolic Z-matrix:
 Charge =  0 Multiplicity = 1

 SCF Done:  E(RTPSS-TPSS) =  -323.702695026     A.U. after   17 cycles
 SCF Done:  E(RTPSS-TPSS) =  -323.703923040     A.U. after   13 cycles
 SCF Done:  E(RTPSS-TPSS) =  -323.703950832     A.U. after    9 cycles
 SCF Done:  E(RTPSS-TPSS) =  -323.703956198     A.U. after    9 cycles
 Optimization completed.
    -- Stationary point found.
 Normal termination of Gaussian 09 at Fri Aug 27 00:04:32 2021.

 ---------------------------------------------------------------------
 #P Geom=AllCheck Guess=TCheck SCRF=Check GenChk RTPSSTPSS/ChkBas Freq
 ---------------------------------------------------------------------

 Structure from the checkpoint file:  "PY_TPSSTPSS_PC2_OPT_FREQ.chk"
 ------------------------
 PY_TPSSTPSS_PC2_OPT_FREQ
 ------------------------
 Charge =  0 Multiplicity = 1

                         Standard orientation:
 ---------------------------------------------------------------------
 Center     Atomic      Atomic             Coordinates (Angstroms)
 Number     Number       Type             X           Y           Z
 ---------------------------------------------------------------------
      1          8           0       -0.145045    2.292225   -0.000000
      2          7           0       -1.140812    0.225880   -0.000000
      3          6           0       -0.000000    1.069972   -0.000000
      4          6           0        1.244230    0.329684    0.000000
      5          6           0       -1.119294   -1.137139    0.000000
      6          6           0        1.269083   -1.038019    0.000000
      7          6           0        0.070849   -1.805453    0.000000
      8          1           0       -2.026498    0.720458   -0.000000
      9          1           0        2.153521    0.918815    0.000000
     10          1           0       -2.084439   -1.630269   -0.000000
     11          1           0        2.224757   -1.555023    0.000000
     12          1           0        0.089501   -2.887209    0.000000
 ---------------------------------------------------------------------

 SCF Done:  E(RTPSS-TPSS) =  -323.703956198     A.U. after    1 cycles

 The electronic state is 1-A'.
 Alpha  occ. eigenvalues --  -18.84035 -14.16365 -10.08401 -10.05592 -10.01811
 Alpha  occ. eigenvalues --  -10.00451 -10.00066  -0.96450  -0.89553  -0.76653
 Alpha  occ. eigenvalues --   -0.70748  -0.60905  -0.59043  -0.52180  -0.46513
 Alpha  occ. eigenvalues --   -0.44915  -0.42563  -0.40149  -0.38525  -0.35051
 Alpha  occ. eigenvalues --   -0.34264  -0.31314  -0.28446  -0.21585  -0.20192
 Alpha virt. eigenvalues --   -0.07785  -0.02641  -0.00680   0.02001   0.03392
 Alpha virt. eigenvalues --    0.05928   0.06974   0.08637   0.11425   0.13318
 Alpha virt. eigenvalues --    0.13978   0.14480   0.15974   0.17773   0.17961

 Mulliken charges:
               1
     1  O   -0.473806
     2  N   -0.284440
     3  C    0.423467
     4  C   -0.130895
     5  C    0.199350
     6  C    0.046587
     7  C   -0.146646
     8  H    0.161767
     9  H    0.045978
    10  H    0.067595
    11  H    0.051638
    12  H    0.039405
 Sum of Mulliken charges =  -0.00000

 Dipole moment (field-independent basis, Debye):
    X=             -1.1873    Y=             -4.1354    Z=              0.0000  Tot=              4.3025
 Quadrupole moment (field-independent basis, Debye-Ang):
   XX=            -31.5969   YY=            -47.6086   ZZ=            -42.8990
   XY=              0.2812   XZ=             -0.0000   YZ=              0.0000

  Exact polarizability:  75.307   0.043  92.226   0.000   0.000  37.875
 Approx polarizability: 145.423   1.622 197.398   0.000  -0.000  62.025

                      1                      2                      3
                     A"                     A"                     A'
 Frequencies --    165.1965               380.8721               439.4238
 Red. masses --      5.8004                 3.3658                 6.0963
 Frc consts  --      0.0933                 0.2877                 0.6936
 IR Inten    --      2.8110                 1.3038                 6.0089

                      4                      5                      6
                     A"                     A'                     A'
 Frequencies --    475.2517               531.1066               600.3490
 Red. masses --      2.0933                 7.8668                 6.7504
 Frc consts  --      0.2786                 1.3074                 1.4335
 IR Inten    --     35.3626                 5.4735                 1.1529

                      7                      8                      9
                     A"                     A"                     A"
 Frequencies --    694.8996               722.6634               758.7571
 Red. masses --      1.4060                 1.9455                 1.6627
 Frc consts  --      0.4000                 0.5986                 0.5640
 IR Inten    --     38.0889                 0.1245                72.4462

                     10                     11                     12
                     A'                     A"                     A"
 Frequencies --    798.0591               844.4374               926.5259
 Red. masses --      5.2548                 1.5778                 1.2824
 Frc consts  --      1.9719                 0.6629                 0.6486
 IR Inten    --      8.7452                12.2640                 0.0588

                     13                     14                     15
                     A'                     A"                     A'
 Frequencies --    985.2662               989.1927              1006.6189
 Red. masses --      4.8848                 1.2794                 2.9396
 Frc consts  --      2.7939                 0.7376                 1.7550
 IR Inten    --     13.2019                 0.0536                 3.1299

                     16                     17                     18
                     A'                     A'                     A'
 Frequencies --   1091.5994              1143.0394              1205.8733
 Red. masses --      1.7463                 1.4028                 1.4869
 Frc consts  --      1.2260                 1.0798                 1.2739
 IR Inten    --     16.6507                20.8064                 2.1021

                     19                     20                     21
                     A'                     A'                     A'
 Frequencies --   1217.4674              1370.4677              1429.8861
 Red. masses --      1.4672                 1.4830                 2.1008
 Frc consts  --      1.2813                 1.6411                 2.5307
 IR Inten    --     24.1776                 3.0483                 6.4332

                     22                     23                     24
                     A'                     A'                     A'
 Frequencies --   1469.4686              1549.2180              1625.5665
 Red. masses --      2.1908                 5.0709                 4.1933
 Frc consts  --      2.7873                 7.1707                 6.5285
 IR Inten    --      1.2187                39.5888                47.9057

                     25                     26                     27
                     A'                     A'                     A'
 Frequencies --   1703.4231              3131.2631              3163.3632
 Red. masses --      7.4254                 1.0885                 1.0900
 Frc consts  --     12.6945                 6.2883                 6.4263
 IR Inten    --    565.6049                13.1350                 3.3040

                     28                     29                     30
                     A'                     A'                     A'
 Frequencies --   3177.4385              3191.3075              3527.4617
 Red. masses --      1.0926                 1.0963                 1.0776
 Frc consts  --      6.4996                 6.5784                 7.9003
 IR Inten    --      3.7109                 4.8568                46.6276

 - Thermochemistry -
 -------------------
 Temperature   298.150 Kelvin.  Pressure   1.00000 Atm.
 Atom     1 has atomic number  8 and mass  15.99491

 Molecular mass:    95.03711 amu.
 Principal axes and moments of inertia in atomic units:
                           1         2         3
     Eigenvalues --   319.16621 651.43321 970.59942
           X           -0.06307   0.99801   0.00000
           Y            0.99801   0.06307   0.00000
           Z            0.00000   0.00000   1.00000
 This molecule is an asymmetric top.
 Rotational symmetry number  1.
 Rotational temperatures (Kelvin)      0.27138     0.13296     0.08924
 Rotational constants (GHZ):           5.65455     2.77042     1.85941
 Zero-point vibrational energy     241140.0 (Joules/Mol)
                                   57.63385 (Kcal/Mol)
 Warning -- explicit consideration of   6 degrees of freedom as
           vibrations may cause significant error
 Vibrational temperatures:    237.68   547.99   632.23   683.78   764.14
          (Kelvin)            863.77   999.80  1039.75  1091.68  1148.23
                             1214.96  1333.06  1417.58  1423.23  1448.30
                             1570.57  1644.58  1734.98  1751.66  1971.79
                             2057.28  2114.23  2228.98  2338.82  2450.84
                             4505.18  4551.37  4571.62  4591.57  5075.22

 Zero-point correction=                           0.091845 (Hartree/Particle)
 Thermal correction to Energy=                    0.097227
 Thermal correction to Enthalpy=                  0.098171
 Thermal correction to Gibbs Free Energy=         0.062831
 Sum of electronic and zero-point Energies=           -323.612111
 Sum of electronic and thermal Energies=              -323.606729
 Sum of electronic and thermal Enthalpies=            -323.605785
 Sum of electronic and thermal Free Energies=         -323.641125

                     E (Thermal)             CV                S
                      KCal/Mol        Cal/Mol-Kelvin    Cal/Mol-Kelvin
 Total                   61.011             20.828             74.379
 Electronic               0.000              0.000              0.000
 Translational            0.889              2.981             39.566
 Rotational               0.889              2.981             26.803
 Vibrational             59.234             14.867              8.010
 Vibration     1          0.624              1.885              2.489
 Vibration     2          0.751              1.511              1.036
 Vibration     3          0.799              1.384              0.828
 Vibration     4          0.832              1.305              0.723
 Vibration     5          0.886              1.181              0.585
 Vibration     6          0.958              1.031              0.449

 Optimization completed.
    -- Stationary point found.
 Normal termination of Gaussian 09 at Fri Aug 27 00:05:14 2021.
