 Gaussian 09, Revision E.01,
 Gaussian 09:  EM64L-G09RevE.01 30-Nov-2015

 ---------------------------------------------------
 #p opt=(calcfc,qst3,MaxCycle=200) freq TPSSTPSS/gen
 ---------------------------------------------------

 ------------------------
 HY_TPSSTPSS_PC2_OPT_FREQ
 ------------------------
 Symbolic Z-matrix:
 Charge =  0 Multiplicity = 1

 ------------------------
 PY_TPSSTPSS_PC2_OPT_FREQ
 ------------------------
 Symbolic Z-matrix:
 Charge =  0 Multiplicity = 1

 ----------------
 TST_GAS_TPSSTPSS
 ----------------
 Symbolic Z-matrix:
 Charge =  0 Multiplicity = 1

 SCF Done:  E(RTPSS-TPSS) =  -323.630314321     A.U. after   15 cycles
 SCF Done:  E(RTPSS-TPSS) =  -323.643281839     A.U. after   13 cycles
 SCF Done:  E(RTPSS-TPSS) =  -323.650654978     A.U. after   13 cycles
 SCF Done:  E(RTPSS-TPSS) =  -323.650146341     A.U. after   13 cycles
 SCF Done:  E(RTPSS-TPSS) =  -323.656235073     A.U. after   14 cycles
 SCF Done:  E(RTPSS-TPSS) =  -323.651591049     A.U. after   13 cycles
 SCF Done:  E(RTPSS-TPSS) =  -323.649963342     A.U. after   14 cycles
 SCF Done:  E(RTPSS-TPSS) =  -323.650709159     A.U. after   13 cycles
 SCF Done:  E(RTPSS-TPSS) =  -323.650454143     A.U. after   13 cycles
 SCF Done:  E(RTPSS-TPSS) =  -323.650791336     A.U. after   13 cycles
 SCF Done:  E(RTPSS-TPSS) =  -323.650697923     A.U. after   11 cycles
 SCF Done:  E(RTPSS-TPSS) =  -323.650819071     A.U. after   12 cycles
 SCF Done:  E(RTPSS-TPSS) =  -323.650819944     A.U. after    8 cycles
 Optimization completed.
    -- Stationary point found.
 Normal termination of Gaussian 09 at Sat Aug 28 00:55:24 2021.

 ---------------------------------------------------------------------
 #P Geom=AllCheck Guess=TCheck SCRF=Check GenChk RTPSSTPSS/ChkBas Freq
 ---------------------------------------------------------------------

 Structure from the checkpoint file:  "TST_GAS_TPSSTPSS.chk"
 ------------------------
 HY_TPSSTPSS_PC2_OPT_FREQ
 ------------------------
 Charge =  0 Multiplicity = 1

                         Standard orientation:
 ---------------------------------------------------------------------
 Center     Atomic      Atomic             Coordinates (Angstroms)
 Number     Number       Type             X           Y           Z
 ---------------------------------------------------------------------
      1          8           0       -2.242634    0.034400    0.000231
      2          7           0       -0.422049   -1.050703   -0.000115
      3          6           0       -0.958364    0.207476   -0.000043
      4          6           0       -0.113943    1.335602   -0.000173
      5          6           0        0.897393   -1.289371   -0.000059
      6          6           0        1.251404    1.089925    0.000014
      7          6           0        1.777384   -0.216887    0.000162
      8          1           0       -1.707456   -1.236664   -0.000484
      9          1           0       -0.523745    2.337543   -0.000270
     10          1           0        1.219027   -2.324916   -0.000093
     11          1           0        1.937868    1.931670    0.000068
     12          1           0        2.846474   -0.388388    0.000331
 ---------------------------------------------------------------------

 SCF Done:  E(RTPSS-TPSS) =  -323.650819944     A.U. after    1 cycles

 The electronic state is 1-A.
 Alpha  occ. eigenvalues --  -18.86967 -14.13766 -10.08438 -10.05227 -10.02427
 Alpha  occ. eigenvalues --  -10.00866 -10.00633  -0.98926  -0.87617  -0.76212
 Alpha  occ. eigenvalues --   -0.70789  -0.61740  -0.57784  -0.50411  -0.46791
 Alpha  occ. eigenvalues --   -0.44241  -0.40887  -0.40575  -0.38652  -0.35731
 Alpha  occ. eigenvalues --   -0.31473  -0.31268  -0.28120  -0.25772  -0.20637
 Alpha virt. eigenvalues --   -0.07903  -0.03562   0.00267   0.02289   0.03425
 Alpha virt. eigenvalues --    0.05002   0.06570   0.08582   0.10820   0.12709
 Alpha virt. eigenvalues --    0.14143   0.14242   0.15595   0.16285   0.18076

 Mulliken charges:
               1
     1  O   -0.499524
     2  N   -0.434088
     3  C    0.524822
     4  C   -0.130447
     5  C    0.192163
     6  C    0.064720
     7  C   -0.163677
     8  H    0.242960
     9  H    0.042247
    10  H    0.066750
    11  H    0.053595
    12  H    0.040480
 Sum of Mulliken charges =  -0.00000

 Dipole moment (field-independent basis, Debye):
    X=              3.3835    Y=             -0.3510    Z=             -0.0008  Tot=              3.4017
 Quadrupole moment (field-independent basis, Debye-Ang):
   XX=            -44.5062   YY=            -34.5978   ZZ=            -42.9244
   XY=              0.8046   XZ=              0.0027   YZ=              0.0006

  Exact polarizability:  91.613  -1.346  76.498   0.002   0.000  37.733
 Approx polarizability: 197.944  -7.895 155.991   0.002   0.002  62.039

 ******    1 imaginary frequencies (negative Signs) ******

                      1                      2                      3
                      A                      A                      A
 Frequencies --  -1739.3171               178.3934               402.3096
 Red. masses --      1.0721                 6.8145                 3.4058
 Frc consts  --      1.9109                 0.1278                 0.3248
 IR Inten    --    521.6177                 0.0111                 2.1490

                      4                      5                      6
                      A                      A                      A
 Frequencies --    476.9641               483.3432               592.7604
 Red. masses --      2.5137                 7.1729                 7.1322
 Frc consts  --      0.3369                 0.9873                 1.4765
 IR Inten    --     15.9308                 2.6676                 2.7095

                      7                      8                      9
                      A                      A                      A
 Frequencies --    655.2736               720.4885               756.7325
 Red. masses --      7.0270                 3.5608                 1.3536
 Frc consts  --      1.7777                 1.0891                 0.4567
 IR Inten    --      0.1860                 2.7939                56.8784

                     10                     11                     12
                      A                      A                      A
 Frequencies --    843.4918               874.5228               943.5457
 Red. masses --      1.3518                 5.8278                 1.3445
 Frc consts  --      0.5667                 2.6260                 0.7052
 IR Inten    --      2.4416                 6.5515                 1.5228

                     13                     14                     15
                      A                      A                      A
 Frequencies --    982.2615               999.5679              1023.2825
 Red. masses --      1.2818                 6.2099                 2.1465
 Frc consts  --      0.7286                 3.6556                 1.3243
 IR Inten    --      0.0579                12.4343                 3.9922

                     16                     17                     18
                      A                      A                      A
 Frequencies --   1091.4641              1122.8962              1162.5654
 Red. masses --      1.1722                 1.5086                 1.1074
 Frc consts  --      0.8228                 1.1207                 0.8819
 IR Inten    --     49.8336                 4.8912                12.3979

                     19                     20                     21
                      A                      A                      A
 Frequencies --   1252.7340              1312.9941              1382.3972
 Red. masses --      2.8407                 2.2806                 2.5084
 Frc consts  --      2.6266                 2.3164                 2.8243
 IR Inten    --      1.8967                32.4431                19.1102

                     22                     23                     24
                      A                      A                      A
 Frequencies --   1459.8126              1503.1769              1555.6372
 Red. masses --      2.2354                 3.9364                 4.7905
 Frc consts  --      2.8067                 5.2405                 6.8305
 IR Inten    --      2.5798               261.5394                27.1060

                     25                     26                     27
                      A                      A                      A
 Frequencies --   1621.5395              2056.4931              3138.9053
 Red. masses --      5.8347                 1.0794                 1.0884
 Frc consts  --      9.0391                 2.6896                 6.3179
 IR Inten    --    354.9818                34.5164                 9.0524

                     28                     29                     30
                      A                      A                      A
 Frequencies --   3161.0674              3181.9470              3185.2316
 Red. masses --      1.0893                 1.0938                 1.0952
 Frc consts  --      6.4132                 6.5250                 6.5467
 IR Inten    --      4.3888                 9.8390                 1.1324

 - Thermochemistry -
 -------------------
 Temperature   298.150 Kelvin.  Pressure   1.00000 Atm.
 Atom     1 has atomic number  8 and mass  15.99491

 Molecular mass:    95.03711 amu.
 Principal axes and moments of inertia in atomic units:
                           1         2         3
     Eigenvalues --   316.29535 632.09057 948.38591
           X            0.99997   0.00787   0.00001
           Y           -0.00787   0.99997   0.00000
           Z           -0.00001  -0.00000   1.00000
 This molecule is an asymmetric top.
 Rotational symmetry number  1.
 Rotational temperatures (Kelvin)      0.27384     0.13703     0.09133
 Rotational constants (GHZ):           5.70587     2.85519     1.90296
    1 imaginary frequencies ignored.
 Zero-point vibrational energy     228019.0 (Joules/Mol)
                                   54.49785 (Kcal/Mol)
 Warning -- explicit consideration of   5 degrees of freedom as
           vibrations may cause significant error
 Vibrational temperatures:    256.67   578.83   686.24   695.42   852.85
          (Kelvin)            942.79  1036.62  1088.77  1213.60  1258.24
                             1357.55  1413.25  1438.15  1472.27  1570.37
                             1615.60  1672.67  1802.40  1889.10  1988.96
                             2100.34  2162.73  2238.21  2333.03  2958.83
                             4516.18  4548.07  4578.11  4582.83

 Zero-point correction=                           0.086848 (Hartree/Particle)
 Thermal correction to Energy=                    0.091954
 Thermal correction to Enthalpy=                  0.092898
 Thermal correction to Gibbs Free Energy=         0.058025
 Sum of electronic and zero-point Energies=           -323.563972
 Sum of electronic and thermal Energies=              -323.558866
 Sum of electronic and thermal Enthalpies=            -323.557922
 Sum of electronic and thermal Free Energies=         -323.592795

                     E (Thermal)             CV                S
                      KCal/Mol        Cal/Mol-Kelvin    Cal/Mol-Kelvin
 Total                   57.702             19.538             73.398
 Electronic               0.000              0.000              0.000
 Translational            0.889              2.981             39.566
 Rotational               0.889              2.981             26.741
 Vibrational             55.925             13.576              7.090
 Vibration     1          0.629              1.869              2.345
 Vibration     2          0.768              1.465              0.954
 Vibration     3          0.834              1.301              0.718
 Vibration     4          0.840              1.287              0.701
 Vibration     5          0.950              1.047              0.462

 Optimization completed.
    -- Stationary point found.
 Normal termination of Gaussian 09 at Sat Aug 28 00:56:10 2021.
