 Gaussian 09, Revision E.01,
 Gaussian 09:  EM64L-G09RevE.01 30-Nov-2015

 ------------------------------
 # opt freq=raman CAM-B3LYP/gen
 ------------------------------

 -------------------------
 2HY_CAM-B3LYP_pc2_optfreq
 -------------------------
 Symbolic Z-matrix:
 Charge =  0 Multiplicity = 1

 SCF Done:  E(RCAM-B3LYP) =  -323.459411582     A.U. after   14 cycles
 SCF Done:  E(RCAM-B3LYP) =  -323.491166089     A.U. after   13 cycles
 SCF Done:  E(RCAM-B3LYP) =  -323.499480023     A.U. after   13 cycles
 SCF Done:  E(RCAM-B3LYP) =  -323.500134440     A.U. after   11 cycles
 SCF Done:  E(RCAM-B3LYP) =  -323.500306901     A.U. after   10 cycles
 SCF Done:  E(RCAM-B3LYP) =  -323.500312411     A.U. after    9 cycles
 SCF Done:  E(RCAM-B3LYP) =  -323.500313253     A.U. after    8 cycles
 Optimization completed.
    -- Stationary point found.
 Normal termination of Gaussian 09 at Sat Jun 19 00:18:49 2021.

 ----------------------------------------------------------------------
 #N Geom=AllCheck Guess=TCheck SCRF=Check GenChk RCAM-B3LYP/ChkBas Freq
 ----------------------------------------------------------------------

 Structure from the checkpoint file:  "2HY_CAM-B3LYP_pc2_optfreq.chk"
 -------------------------
 2HY_CAM-B3LYP_pc2_optfreq
 -------------------------
 Charge =  0 Multiplicity = 1

                         Standard orientation:
 ---------------------------------------------------------------------
 Center     Atomic      Atomic             Coordinates (Angstroms)
 Number     Number       Type             X           Y           Z
 ---------------------------------------------------------------------
      1          8           0        0.005131    2.243417   -0.000000
      2          7           0       -1.169145    0.294234    0.000000
      3          6           0        0.000000    0.897190   -0.000000
      4          6           0        1.219343    0.225109   -0.000000
      5          6           0       -1.184137   -1.038040    0.000000
      6          6           0        1.184736   -1.149094   -0.000000
      7          6           0       -0.040694   -1.805468    0.000000
      8          1           0       -0.916442    2.527043    0.000000
      9          1           0        2.142392    0.783663   -0.000000
     10          1           0       -2.163036   -1.500428    0.000000
     11          1           0        2.107449   -1.712566   -0.000000
     12          1           0       -0.102886   -2.882867    0.000000
 ---------------------------------------------------------------------

 SCF Done:  E(RCAM-B3LYP) =  -323.500313253     A.U. after    1 cycles

 The electronic state is 1-A'.
 Alpha  occ. eigenvalues --  -19.23280 -14.38848 -10.34691 -10.29002 -10.27293
 Alpha  occ. eigenvalues --  -10.25768 -10.25328  -1.16671  -1.03247  -0.89842
 Alpha  occ. eigenvalues --   -0.84568  -0.73215  -0.71237  -0.63455  -0.59644
 Alpha  occ. eigenvalues --   -0.55990  -0.52185  -0.51970  -0.48948  -0.47156
 Alpha  occ. eigenvalues --   -0.44272  -0.43188  -0.35703  -0.34468  -0.30258
 Alpha virt. eigenvalues --    0.00899   0.03660   0.05335   0.06409   0.07425
 Alpha virt. eigenvalues --    0.09496   0.11165   0.17739   0.18424   0.19509
 Alpha virt. eigenvalues --    0.19745   0.20502   0.22547   0.23049   0.24038

 Mulliken charges:
               1
     1  O   -0.385124
     2  N   -0.402520
     3  C    0.479682
     4  C   -0.145298
     5  C    0.120653
     6  C    0.038688
     7  C   -0.143382
     8  H    0.213110
     9  H    0.055902
    10  H    0.060551
    11  H    0.059543
    12  H    0.048195
 Sum of Mulliken charges =  -0.00000

 Dipole moment (field-independent basis, Debye):
    X=              0.5047    Y=             -1.3054    Z=             -0.0000  Tot=              1.3996
 Quadrupole moment (field-independent basis, Debye-Ang):
   XX=            -38.0629   YY=            -37.1203   ZZ=            -43.2972
   XY=             -2.0780   XZ=              0.0000   YZ=             -0.0000

  Exact polarizability:  72.807   0.272  83.278  -0.000   0.000  37.896
 Approx polarizability:  93.218   0.947 101.978  -0.000   0.000  49.143

                      1                      2                      3
                     A"                     A'                     A"
 Frequencies --    220.7395               427.2503               431.2684
 Red. masses --      4.9496                 4.1873                 3.4346
 Frc consts  --      0.1421                 0.4503                 0.3764
 IR Inten    --      0.9680                17.6183                 0.0950
 Raman Activ --      1.1511                 0.1985                 0.0878

                      4                      5                      6
                     A"                     A"                     A'
 Frequencies --    501.3571               566.9476               575.5466
 Red. masses --      1.2978                 1.9416                 7.0116
 Frc consts  --      0.1922                 0.3677                 1.3684
 IR Inten    --    104.4757                18.3616                 0.6097
 Raman Activ --      1.0454                 1.0277                 5.6289

                      7                      8                      9
                     A'                     A"                     A"
 Frequencies --    649.0172               772.1730               816.0496
 Red. masses --      7.0883                 1.7993                 2.1876
 Frc consts  --      1.7592                 0.6321                 0.8583
 IR Inten    --      2.5237                10.7310                60.2553
 Raman Activ --      3.7088                 0.1591                 0.3391

                     10                     11                     12
                     A'                     A"                     A"
 Frequencies --    877.3378               902.2561              1008.4052
 Red. masses --      5.6843                 1.4017                 1.4033
 Frc consts  --      2.5779                 0.6723                 0.8407
 IR Inten    --     13.3930                 2.4746                 0.4461
 Raman Activ --     15.9839                 0.0782                 0.4714

                     13                     14                     15
                     A'                     A"                     A'
 Frequencies --   1025.3707              1034.0565              1078.8599
 Red. masses --      6.6955                 1.3306                 1.9820
 Frc consts  --      4.1476                 0.8383                 1.3592
 IR Inten    --      7.8198                 0.0700                 4.0035
 Raman Activ --     17.3019                 0.2688                14.3934

                     16                     17                     18
                     A'                     A'                     A'
 Frequencies --   1124.0843              1169.8283              1210.7727
 Red. masses --      1.5870                 1.2280                 1.2919
 Frc consts  --      1.1815                 0.9901                 1.1158
 IR Inten    --     28.2741                40.0904               139.3494
 Raman Activ --      3.3845                 0.7243                 5.0097

                     19                     20                     21
                     A'                     A'                     A'
 Frequencies --   1311.9370              1348.1817              1380.0436
 Red. masses --      3.8076                 3.5311                 1.3248
 Frc consts  --      3.8612                 3.7814                 1.4865
 IR Inten    --     14.8762                84.2873                20.1148
 Raman Activ --      6.0464                13.1993                 1.9006

                     22                     23                     24
                     A'                     A'                     A'
 Frequencies --   1513.9641              1536.6065              1664.6193
 Red. masses --      2.6507                 2.5272                 6.4184
 Frc consts  --      3.5797                 3.5157                10.4787
 IR Inten    --     53.1669               134.8661               106.0653
 Raman Activ --      1.3099                 0.2885                13.2036

                     25                     26                     27
                     A'                     A'                     A'
 Frequencies --   1685.9589              3188.2840              3204.7880
 Red. masses --      5.7713                 1.0902                 1.0900
 Frc consts  --      9.6654                 6.5291                 6.5956
 IR Inten    --    100.3203                11.2631                 6.3151
 Raman Activ --     10.0815                92.0211                73.1007

                     28                     29                     30
                     A'                     A'                     A'
 Frequencies --   3230.7745              3237.0499              3811.5500
 Red. masses --      1.0947                 1.0966                 1.0644
 Frc consts  --      6.7325                 6.7702                 9.1106
 IR Inten    --      7.6094                 0.6107                98.5001
 Raman Activ --     85.3391               178.1919                98.3483

 - Thermochemistry -
 -------------------
 Temperature   298.150 Kelvin.  Pressure   1.00000 Atm.
 Atom     1 has atomic number  8 and mass  15.99491

 Molecular mass:    95.03711 amu.
 Principal axes and moments of inertia in atomic units:
                           1         2         3
     Eigenvalues --   304.45681 644.67169 949.12850
           X           -0.02859   0.99959   0.00000
           Y            0.99959   0.02859   0.00000
           Z           -0.00000  -0.00000   1.00000
 This molecule is an asymmetric top.
 Rotational symmetry number  1.
 Rotational temperatures (Kelvin)      0.28449     0.13435     0.09126
 Rotational constants (GHZ):           5.92774     2.79947     1.90147
 Zero-point vibrational energy     248255.5 (Joules/Mol)
                                   59.33449 (Kcal/Mol)
 Warning -- explicit consideration of   6 degrees of freedom as
           vibrations may cause significant error
 Vibrational temperatures:    317.59   614.72   620.50   721.34   815.71
          (Kelvin)            828.08   933.79  1110.98  1174.11  1262.29
                             1298.14  1450.87  1475.28  1487.77  1552.24
                             1617.30  1683.12  1742.03  1887.58  1939.73
                             1985.57  2178.25  2210.83  2395.01  2425.72
                             4587.22  4610.97  4648.36  4657.39  5483.96

 Zero-point correction=                           0.094556 (Hartree/Particle)
 Thermal correction to Energy=                    0.099693
 Thermal correction to Enthalpy=                  0.100637
 Thermal correction to Gibbs Free Energy=         0.065819
 Sum of electronic and zero-point Energies=           -323.405758
 Sum of electronic and thermal Energies=              -323.400621
 Sum of electronic and thermal Enthalpies=            -323.399676
 Sum of electronic and thermal Free Energies=         -323.434495

                     E (Thermal)             CV                S
                      KCal/Mol        Cal/Mol-Kelvin    Cal/Mol-Kelvin
 Total                   62.558             19.940             73.281
 Electronic               0.000              0.000              0.000
 Translational            0.889              2.981             39.566
 Rotational               0.889              2.981             26.724
 Vibrational             60.781             13.978              6.991
 Vibration     1          0.647              1.810              1.953
 Vibration     2          0.789              1.411              0.868
 Vibration     3          0.792              1.402              0.855
 Vibration     4          0.857              1.247              0.655
 Vibration     5          0.923              1.103              0.510
 Vibration     6          0.932              1.084              0.494

 Optimization completed.
    -- Stationary point found.
 Normal termination of Gaussian 09 at Sat Jun 19 00:19:56 2021.
