 Gaussian 09, Revision E.01,
 Gaussian 09:  EM64L-G09RevE.01 30-Nov-2015

 ------------------------------
 # opt freq=raman CAM-B3LYP/gen
 ------------------------------

 -------------------------
 2PY_CAM-B3LYP_pc2_optfreq
 -------------------------
 Symbolic Z-matrix:
 Charge =  0 Multiplicity = 1

 SCF Done:  E(RCAM-B3LYP) =  -323.495617347     A.U. after   14 cycles
 SCF Done:  E(RCAM-B3LYP) =  -323.499654985     A.U. after   12 cycles
 SCF Done:  E(RCAM-B3LYP) =  -323.500056854     A.U. after   11 cycles
 SCF Done:  E(RCAM-B3LYP) =  -323.500129731     A.U. after   10 cycles
 SCF Done:  E(RCAM-B3LYP) =  -323.500133337     A.U. after    9 cycles
 Optimization completed.
    -- Stationary point found.
 Normal termination of Gaussian 09 at Sat Jun 19 00:21:24 2021.

 ----------------------------------------------------------------------
 #N Geom=AllCheck Guess=TCheck SCRF=Check GenChk RCAM-B3LYP/ChkBas Freq
 ----------------------------------------------------------------------

 Structure from the checkpoint file:  "2PY_CAM-B3LYP_pc2_optfreq.chk"
 -------------------------
 2PY_CAM-B3LYP_pc2_optfreq
 -------------------------
 Charge =  0 Multiplicity = 1

                         Standard orientation:
 ---------------------------------------------------------------------
 Center     Atomic      Atomic             Coordinates (Angstroms)
 Number     Number       Type             X           Y           Z
 ---------------------------------------------------------------------
      1          8           0       -0.122048    2.267298    0.000000
      2          7           0       -1.131289    0.239964    0.000000
      3          6           0        0.000000    1.056689    0.000000
      4          6           0        1.240992    0.314995   -0.000000
      5          6           0       -1.117213   -1.117237    0.000000
      6          6           0        1.254790   -1.035465   -0.000000
      7          6           0        0.050515   -1.790837   -0.000000
      8          1           0       -2.006216    0.740689    0.000000
      9          1           0        2.147094    0.900857   -0.000000
     10          1           0       -2.081895   -1.601863    0.000000
     11          1           0        2.201810   -1.558522   -0.000000
     12          1           0        0.060100   -2.868167   -0.000000
 ---------------------------------------------------------------------

 SCF Done:  E(RCAM-B3LYP) =  -323.500133337     A.U. after    1 cycles

 The electronic state is 1-A'.
 Alpha  occ. eigenvalues --  -19.15420 -14.45038 -10.35264 -10.31673 -10.27876
 Alpha  occ. eigenvalues --  -10.26038 -10.25725  -1.12706  -1.04910  -0.91328
 Alpha  occ. eigenvalues --   -0.84932  -0.73963  -0.72301  -0.64392  -0.58756
 Alpha  occ. eigenvalues --   -0.56653  -0.53899  -0.52460  -0.50224  -0.46498
 Alpha  occ. eigenvalues --   -0.44887  -0.42168  -0.38012  -0.32746  -0.28460
 Alpha virt. eigenvalues --   -0.00807   0.03642   0.04748   0.05942   0.07388
 Alpha virt. eigenvalues --    0.09997   0.10839   0.16678   0.16972   0.18260
 Alpha virt. eigenvalues --    0.18973   0.19441   0.21629   0.22865   0.23000

 Mulliken charges:
               1
     1  O   -0.477745
     2  N   -0.268007
     3  C    0.418202
     4  C   -0.140794
     5  C    0.181930
     6  C    0.032141
     7  C   -0.145169
     8  H    0.160230
     9  H    0.061322
    10  H    0.062525
    11  H    0.062609
    12  H    0.052755
 Sum of Mulliken charges =  -0.00000

 Dipole moment (field-independent basis, Debye):
    X=             -1.1973    Y=             -4.3069    Z=              0.0000  Tot=              4.4702
 Quadrupole moment (field-independent basis, Debye-Ang):
   XX=            -31.6401   YY=            -48.3220   ZZ=            -43.2452
   XY=              0.0827   XZ=              0.0000   YZ=              0.0000

  Exact polarizability:  71.489  -0.068  87.993  -0.000  -0.000  37.646
 Approx polarizability:  87.068  -1.254 110.411  -0.000  -0.000  48.733

                      1                      2                      3
                     A"                     A"                     A'
 Frequencies --    174.1798               394.2443               464.8839
 Red. masses --      5.7315                 3.2570                 6.0925
 Frc consts  --      0.1025                 0.2983                 0.7758
 IR Inten    --      3.3317                 1.1676                 6.9461
 Raman Activ --      0.5587                 0.8146                 0.8228

                      4                      5                      6
                     A"                     A'                     A'
 Frequencies --    500.7243               556.4200               627.1890
 Red. masses --      2.0564                 7.9058                 6.7554
 Frc consts  --      0.3038                 1.4421                 1.5657
 IR Inten    --     39.7206                 7.9367                 0.4112
 Raman Activ --      0.4006                 5.9609                 4.1582

                      7                      8                      9
                     A"                     A"                     A"
 Frequencies --    707.2012               753.8410               792.6596
 Red. masses --      1.3190                 1.6093                 1.8500
 Frc consts  --      0.3887                 0.5388                 0.6849
 IR Inten    --     46.5402                 5.3593                67.9503
 Raman Activ --      0.2360                 0.3831                 0.2485

                     10                     11                     12
                     A'                     A"                     A"
 Frequencies --    837.8290               877.1388               982.5398
 Red. masses --      5.2111                 1.8035                 1.3151
 Frc consts  --      2.1552                 0.8175                 0.7480
 IR Inten    --      9.6342                22.2147                 0.0243
 Raman Activ --     21.1362                 0.0301                 2.3423

                     13                     14                     15
                     A'                     A'                     A"
 Frequencies --   1015.0282              1029.9915              1032.9768
 Red. masses --      4.8889                 2.6269                 1.3058
 Frc consts  --      2.9677                 1.6419                 0.8209
 IR Inten    --     14.1738                 6.3472                 0.1207
 Raman Activ --      0.2061                 8.3325                 0.7927

                     16                     17                     18
                     A'                     A'                     A'
 Frequencies --   1125.3812              1180.5002              1236.0234
 Red. masses --      1.6227                 1.1582                 1.1748
 Frc consts  --      1.2109                 0.9510                 1.0575
 IR Inten    --     18.8638                18.3036                16.4711
 Raman Activ --      4.4292                 2.0151                11.3801

                     19                     20                     21
                     A'                     A'                     A'
 Frequencies --   1266.4303              1405.2258              1471.3192
 Red. masses --      2.8249                 1.4952                 2.0280
 Frc consts  --      2.6694                 1.7396                 2.5867
 IR Inten    --     16.5303                 2.9383                 7.3379
 Raman Activ --     33.5945                17.2538                 2.3089

                     22                     23                     24
                     A'                     A'                     A'
 Frequencies --   1511.9204              1616.8294              1700.7134
 Red. masses --      2.4046                 5.2643                 4.9235
 Frc consts  --      3.2385                 8.1081                 8.3904
 IR Inten    --      2.2029                67.9812                56.5008
 Raman Activ --     20.4945                60.5282                15.2833

                     25                     26                     27
                     A'                     A'                     A'
 Frequencies --   1780.9845              3198.0420              3227.4892
 Red. masses --      8.0353                 1.0899                 1.0909
 Frc consts  --     15.0166                 6.5673                 6.6954
 IR Inten    --    706.7440                 7.7715                 0.7328
 Raman Activ --     22.4951                89.1779                66.1138

                     28                     29                     30
                     A'                     A'                     A'
 Frequencies --   3237.4206              3252.2048              3624.8264
 Red. masses --      1.0946                 1.0980                 1.0780
 Frc consts  --      6.7591                 6.8425                 8.3451
 IR Inten    --      0.7090                 1.8353                72.8015
 Raman Activ --     87.6341               164.1463                87.6087

 - Thermochemistry -
 -------------------
 Temperature   298.150 Kelvin.  Pressure   1.00000 Atm.
 Atom     1 has atomic number  8 and mass  15.99491

 Molecular mass:    95.03711 amu.
 Principal axes and moments of inertia in atomic units:
                           1         2         3
     Eigenvalues --   315.04115 638.25295 953.29410
           X           -0.05577   0.99844   0.00000
           Y            0.99844   0.05577   0.00000
           Z           -0.00000  -0.00000   1.00000
 This molecule is an asymmetric top.
 Rotational symmetry number  1.
 Rotational temperatures (Kelvin)      0.27493     0.13570     0.09086
 Rotational constants (GHZ):           5.72859     2.82763     1.89316
 Zero-point vibrational energy     248716.5 (Joules/Mol)
                                   59.44468 (Kcal/Mol)
 Warning -- explicit consideration of   5 degrees of freedom as
           vibrations may cause significant error
 Vibrational temperatures:    250.61   567.23   668.86   720.43   800.56
          (Kelvin)            902.38  1017.50  1084.61  1140.46  1205.45
                             1262.01  1413.65  1460.40  1481.93  1486.22
                             1619.17  1698.47  1778.36  1822.11  2021.80
                             2116.90  2175.31  2326.25  2446.94  2562.44
                             4601.26  4643.63  4657.92  4679.19  5215.31

 Zero-point correction=                           0.094731 (Hartree/Particle)
 Thermal correction to Energy=                    0.099929
 Thermal correction to Enthalpy=                  0.100873
 Thermal correction to Gibbs Free Energy=         0.065853
 Sum of electronic and zero-point Energies=           -323.405402
 Sum of electronic and thermal Energies=              -323.400204
 Sum of electronic and thermal Enthalpies=            -323.399260
 Sum of electronic and thermal Free Energies=         -323.434281

                     E (Thermal)             CV                S
                      KCal/Mol        Cal/Mol-Kelvin    Cal/Mol-Kelvin
 Total                   62.706             19.968             73.707
 Electronic               0.000              0.000              0.000
 Translational            0.889              2.981             39.566
 Rotational               0.889              2.981             26.752
 Vibrational             60.929             14.007              7.388
 Vibration     1          0.627              1.874              2.390
 Vibration     2          0.761              1.482              0.984
 Vibration     3          0.822              1.328              0.752
 Vibration     4          0.856              1.248              0.656
 Vibration     5          0.912              1.126              0.531

 Optimization completed.
    -- Stationary point found.
 Normal termination of Gaussian 09 at Sat Jun 19 00:22:31 2021.
