 Gaussian 09, Revision E.01,
 Gaussian 09:  EM64L-G09RevE.01 30-Nov-2015

 ----------------------------------------------------------------------
 #p opt freq CCSD/gen SCF(novaracc,noincfock) int=acc2e=12 geom=checkpo
 int
 ----------------------------------------------------------------------

 --------------------
 PY_CCSD_PC2_OPT_FREQ
 --------------------
 Structure from the checkpoint file:  "PY_CCSD_PC2_OPT_FREQ.chk"
 Charge =  0 Multiplicity = 1

 SCF Done:  E(RHF) =  -321.680472589     A.U. after   15 cycles
 E2 =    -0.1196554216D+01 EUMP2 =    -0.32287702680500D+03
 SCF Done:  E(RHF) =  -321.682526648     A.U. after   11 cycles
 E2 =    -0.1194321497D+01 EUMP2 =    -0.32287684814530D+03
 SCF Done:  E(RHF) =  -321.682779292     A.U. after   10 cycles
 E2 =    -0.1193895849D+01 EUMP2 =    -0.32287667514100D+03
 SCF Done:  E(RHF) =  -321.682760474     A.U. after    9 cycles
 E2 =    -0.1193868527D+01 EUMP2 =    -0.32287662900114D+03
 SCF Done:  E(RHF) =  -321.682726557     A.U. after    8 cycles
 E2 =    -0.1193911244D+01 EUMP2 =    -0.32287663780196D+03
 Optimization completed.
    -- Stationary point found.
 Normal termination of Gaussian 09 at Sat Sep  4 04:50:32 2021.

 ---------------------------------------------------------------------
 #P Geom=AllCheck Guess=TCheck SCRF=Check GenChk RCCSD(FC)/ChkBas Freq
 ---------------------------------------------------------------------

 Structure from the checkpoint file:  "PY_CCSD_PC2_OPT_FREQ.chk"
 --------------------
 PY_CCSD_PC2_OPT_FREQ
 --------------------
 Charge =  0 Multiplicity = 1

                         Standard orientation:
 ---------------------------------------------------------------------
 Center     Atomic      Atomic             Coordinates (Angstroms)
 Number     Number       Type             X           Y           Z
 ---------------------------------------------------------------------
      1          8           0       -0.105516    2.272851    0.000000
      2          7           0       -1.131923    0.251651    0.000000
      3          6           0       -0.000000    1.059360    0.000000
      4          6           0        1.245822    0.307903   -0.000000
      5          6           0       -1.125925   -1.114615    0.000000
      6          6           0        1.254852   -1.045586   -0.000000
      7          6           0        0.037674   -1.798646   -0.000000
      8          1           0       -2.003789    0.751272    0.000000
      9          1           0        2.153116    0.888628   -0.000000
     10          1           0       -2.093353   -1.588865    0.000000
     11          1           0        2.198058   -1.571713   -0.000000
     12          1           0        0.039028   -2.874187   -0.000000
 ---------------------------------------------------------------------

 SCF Done:  E(RHF) =  -321.682726557     A.U. after    1 cycles
 E2 =    -0.1193911250D+01 EUMP2 =    -0.32287663780758D+03
 SCF Done:  E(RHF) =  -321.682730510     A.U. after    8 cycles
 E2 =    -0.1193904471D+01 EUMP2 =    -0.32287663498024D+03
 SCF Done:  E(RHF) =  -321.682722171     A.U. after    8 cycles
 E2 =    -0.1193918176D+01 EUMP2 =    -0.32287664034736D+03
 SCF Done:  E(RHF) =  -321.682657583     A.U. after    8 cycles
 E2 =    -0.1194005935D+01 EUMP2 =    -0.32287666351812D+03
 SCF Done:  E(RHF) =  -321.682792757     A.U. after    9 cycles
 E2 =    -0.1193816499D+01 EUMP2 =    -0.32287660925593D+03
 E2 =    -0.1193911304D+01 EUMP2 =    -0.32287663776228D+03
 E2 =    -0.1193920398D+01 EUMP2 =    -0.32287664118743D+03
 E2 =    -0.1193902311D+01 EUMP2 =    -0.32287663166657D+03
 E2 =    -0.1193882645D+01 EUMP2 =    -0.32287661811140D+03
 E2 =    -0.1193940042D+01 EUMP2 =    -0.32287665476879D+03
 E2 =    -0.1193911324D+01 EUMP2 =    -0.32287663771179D+03
 E2 =    -0.1193943085D+01 EUMP2 =    -0.32287665272440D+03
 E2 =    -0.1193879695D+01 EUMP2 =    -0.32287662090882D+03
 E2 =    -0.1193853021D+01 EUMP2 =    -0.32287661652664D+03
 E2 =    -0.1193969503D+01 EUMP2 =    -0.32287665570183D+03
 E2 =    -0.1193911406D+01 EUMP2 =    -0.32287663749785D+03
 E2 =    -0.1193890310D+01 EUMP2 =    -0.32287662348612D+03
 SCF Done:  E(RHF) =  -321.682717399     A.U. after    9 cycles
 E2 =    -0.1193932445D+01 EUMP2 =    -0.32287664984392D+03
 SCF Done:  E(RHF) =  -321.682709483     A.U. after    8 cycles
 E2 =    -0.1193941570D+01 EUMP2 =    -0.32287665105311D+03
 SCF Done:  E(RHF) =  -321.682740614     A.U. after    9 cycles
 E2 =    -0.1193881067D+01 EUMP2 =    -0.32287662168085D+03
 SCF Done:  E(RHF) =  -321.682726301     A.U. after    7 cycles
 E2 =    -0.1193911343D+01 EUMP2 =    -0.32287663764379D+03
 SCF Done:  E(RHF) =  -321.682745715     A.U. after    8 cycles
 E2 =    -0.1193875403D+01 EUMP2 =    -0.32287662111777D+03
 SCF Done:  E(RHF) =  -321.682704132     A.U. after    9 cycles
 E2 =    -0.1193947338D+01 EUMP2 =    -0.32287665147023D+03
 SCF Done:  E(RHF) =  -321.682728379     A.U. after    8 cycles
 E2 =    -0.1193920573D+01 EUMP2 =    -0.32287664895229D+03
 SCF Done:  E(RHF) =  -321.682722232     A.U. after    9 cycles
 E2 =    -0.1193902018D+01 EUMP2 =    -0.32287662425015D+03
 SCF Done:  E(RHF) =  -321.682726236     A.U. after    6 cycles
 E2 =    -0.1193911378D+01 EUMP2 =    -0.32287663761464D+03

 Alpha  occ. eigenvalues --  -20.50273 -15.61889 -11.35025 -11.30829 -11.26814
 Alpha  occ. eigenvalues --  -11.23919 -11.23639  -1.38310  -1.27866  -1.11161
 Alpha  occ. eigenvalues --   -1.03489  -0.88869  -0.86622  -0.75988  -0.69951
 Alpha  occ. eigenvalues --   -0.68113  -0.64235  -0.61685  -0.61062  -0.56396
 Alpha  occ. eigenvalues --   -0.54069  -0.48935  -0.42785  -0.42687  -0.31865
 Alpha virt. eigenvalues --    0.08156   0.08910   0.10584   0.12089   0.14727
 Alpha virt. eigenvalues --    0.14863   0.15158   0.24238   0.24691   0.24926
 Alpha virt. eigenvalues --    0.26418   0.28445   0.28580   0.29654   0.31290

 Mulliken charges:
               1
     1  O   -0.527042
     2  N   -0.355404
     3  C    0.517925
     4  C   -0.100075
     5  C    0.297121
     6  C    0.115839
     7  C   -0.136609
     8  H    0.147957
     9  H    0.004751
    10  H    0.028566
    11  H    0.012622
    12  H   -0.005653
 Sum of Mulliken charges =  -0.00000

 Dipole moment (field-independent basis, Debye):
    X=             -1.1429    Y=             -4.1596    Z=             -0.0001  Tot=              4.3138
 Quadrupole moment (field-independent basis, Debye-Ang):
   XX=            -31.7858   YY=            -48.0715   ZZ=            -43.3549
   XY=             -0.0671   XZ=              0.0003   YZ=              0.0011

 SCF Done:  E(RHF) =  -321.682727169     A.U. after    8 cycles
 E2 =    -0.1193899908D+01 EUMP2 =    -0.32287662707680D+03
