 Gaussian 09, Revision E.01,
 Gaussian 09:  EM64L-G09RevE.01 30-Nov-2015

 ------------------------------------------------------------
 #p gen geom=checkpoint b3lyp iop(5/33=1) nosymm extraoverlay
 ------------------------------------------------------------

 ------------
 4HY_XYG3_PC2
 ------------
 Structure from the checkpoint file:  "./tmp/4HY_XYG3_PC2.chk"
 Charge =  0 Multiplicity = 1

                          Input orientation:
 ---------------------------------------------------------------------
 Center     Atomic      Atomic             Coordinates (Angstroms)
 Number     Number       Type             X           Y           Z
 ---------------------------------------------------------------------
      1          6           0        1.149125    1.150561   -0.000081
      2          6           0       -0.238834    1.184517    0.000028
      3          6           0       -0.928021   -0.024406   -0.000023
      4          6           0       -0.195562   -1.207276   -0.000091
      5          6           0        1.187153   -1.119793   -0.000003
      6          7           0        1.868210    0.029260   -0.000085
      7          1           0        1.707512    2.079793   -0.000003
      8          1           0       -0.765439    2.130790    0.000095
      9          1           0       -0.701752   -2.161571   -0.000188
     10          1           0        1.781127   -2.026407   -0.000201
     11          8           0       -2.283115   -0.108609   -0.000013
     12          1           0       -2.668795    0.772721    0.000158
 ---------------------------------------------------------------------

 SCF Done:  E(RB3LYP) =  -323.647552196     A.U. after   14 cycles

 Alpha  occ. eigenvalues --  -19.17796 -14.30858 -10.26217 -10.21583 -10.21366
 Alpha  occ. eigenvalues --  -10.19035 -10.18452  -1.08955  -0.94801  -0.80719
 Alpha  occ. eigenvalues --   -0.77363  -0.65897  -0.63798  -0.57381  -0.51641
 Alpha  occ. eigenvalues --   -0.49001  -0.46138  -0.44063  -0.44052  -0.41695
 Alpha  occ. eigenvalues --   -0.38321  -0.36662  -0.27672  -0.26637  -0.26532
 Alpha virt. eigenvalues --   -0.02865  -0.02406  -0.00446   0.02969   0.04009
 Alpha virt. eigenvalues --    0.07528   0.07737   0.12126   0.12153   0.13392
 Alpha virt. eigenvalues --    0.15595   0.17198   0.18186   0.18978   0.19883

 Mulliken charges:
               1
     1  C    0.144406
     2  C   -0.170426
     3  C    0.353938
     4  C   -0.123429
     5  C    0.143879
     6  N   -0.363141
     7  H    0.055899
     8  H    0.025374
     9  H    0.047625
    10  H    0.058922
    11  O   -0.372945
    12  H    0.199898
 Sum of Mulliken charges =  -0.00000

 Dipole moment (field-independent basis, Debye):
    X=             -2.3784    Y=              1.2938    Z=              0.0002  Tot=              2.7076
 Quadrupole moment (field-independent basis, Debye-Ang):
   XX=            -44.2195   YY=            -33.7801   ZZ=            -43.2121
   XY=             -4.5031   XZ=             -0.0007   YZ=              0.0010

 E2(B3LYP) =    -0.1724959357D+01 E(B3LYP) =    -0.32537251155331D+03
 Normal termination of Gaussian 09 at Sun Aug 29 12:39:12 2021.
