 Gaussian 09, Revision E.01,
 Gaussian 09:  EM64L-G09RevE.01 30-Nov-2015

 ---------------------
 #p opt freq M062X/gen
 ---------------------

 ---------------------
 HY_M062X_PC2_OPT_FREQ
 ---------------------
 Symbolic Z-matrix:
 Charge =  0 Multiplicity = 1

 SCF Done:  E(RM062X) =  -323.524430571     A.U. after   14 cycles
 SCF Done:  E(RM062X) =  -323.524513294     A.U. after   11 cycles
 SCF Done:  E(RM062X) =  -323.524519134     A.U. after    8 cycles
 Optimization completed.
    -- Stationary point found.
 Normal termination of Gaussian 09 at Fri Aug 27 00:16:49 2021.

 ------------------------------------------------------------------
 #P Geom=AllCheck Guess=TCheck SCRF=Check GenChk RM062X/ChkBas Freq
 ------------------------------------------------------------------

 Structure from the checkpoint file:  "HY_M062X_PC2_OPT_FREQ.chk"
 ---------------------
 HY_M062X_PC2_OPT_FREQ
 ---------------------
 Charge =  0 Multiplicity = 1

                         Standard orientation:
 ---------------------------------------------------------------------
 Center     Atomic      Atomic             Coordinates (Angstroms)
 Number     Number       Type             X           Y           Z
 ---------------------------------------------------------------------
      1          8           0        0.009038    2.245205    0.000000
      2          7           0       -1.173529    0.297117   -0.000000
      3          6           0       -0.000000    0.898551    0.000000
      4          6           0        1.221981    0.224496    0.000000
      5          6           0       -1.187126   -1.037045   -0.000000
      6          6           0        1.186217   -1.152658    0.000000
      7          6           0       -0.041989   -1.808957   -0.000000
      8          1           0       -0.912216    2.529263   -0.000000
      9          1           0        2.144247    0.784921    0.000000
     10          1           0       -2.166878   -1.498855   -0.000000
     11          1           0        2.109007   -1.716827    0.000000
     12          1           0       -0.106258   -2.886282   -0.000000
 ---------------------------------------------------------------------

 SCF Done:  E(RM062X) =  -323.524519134     A.U. after    1 cycles

 The electronic state is 1-A'.
 Alpha  occ. eigenvalues --  -19.65755 -14.75031 -10.63917 -10.58272 -10.56497
 Alpha  occ. eigenvalues --  -10.55044 -10.54602  -1.20680  -1.05712  -0.91498
 Alpha  occ. eigenvalues --   -0.86027  -0.73973  -0.72019  -0.63742  -0.59813
 Alpha  occ. eigenvalues --   -0.56046  -0.52517  -0.51967  -0.49257  -0.47122
 Alpha  occ. eigenvalues --   -0.44037  -0.43568  -0.35453  -0.34518  -0.29942
 Alpha virt. eigenvalues --   -0.00082   0.02603   0.04436   0.05364   0.06151
 Alpha virt. eigenvalues --    0.08071   0.09576   0.16781   0.17653   0.18536
 Alpha virt. eigenvalues --    0.19175   0.19405   0.21489   0.22146   0.23386

 Mulliken charges:
               1
     1  O   -0.429269
     2  N   -0.484945
     3  C    0.599014
     4  C   -0.156928
     5  C    0.215839
     6  C    0.106506
     7  C   -0.168018
     8  H    0.215830
     9  H    0.025355
    10  H    0.031000
    11  H    0.031444
    12  H    0.014171
 Sum of Mulliken charges =   0.00000

 Dipole moment (field-independent basis, Debye):
    X=              0.4824    Y=             -1.2816    Z=              0.0000  Tot=              1.3694
 Quadrupole moment (field-independent basis, Debye-Ang):
   XX=            -37.7504   YY=            -36.7668   ZZ=            -43.2799
   XY=             -2.0634   XZ=             -0.0000   YZ=             -0.0000

  Exact polarizability:  72.593   0.268  82.914   0.000  -0.000  37.765
 Approx polarizability:  95.937   1.096 104.842   0.000   0.000  49.561

                      1                      2                      3
                     A"                     A"                     A'
 Frequencies --    220.4719               425.8893               427.6810
 Red. masses --      4.9461                 3.3983                 4.2777
 Frc consts  --      0.1417                 0.3632                 0.4610
 IR Inten    --      0.9494                 0.0168                16.3579

                      4                      5                      6
                     A"                     A"                     A'
 Frequencies --    488.1014               555.9346               572.6360
 Red. masses --      1.2374                 2.1173                 6.9679
 Frc consts  --      0.1737                 0.3855                 1.3462
 IR Inten    --    111.9316                11.7948                 0.5368

                      7                      8                      9
                     A'                     A"                     A"
 Frequencies --    641.1474               770.3228               811.6553
 Red. masses --      7.0224                 1.9410                 2.0581
 Frc consts  --      1.7008                 0.6786                 0.7988
 IR Inten    --      2.4078                 8.7334                59.4549

                     10                     11                     12
                     A'                     A"                     A"
 Frequencies --    874.8123               902.3669               994.6743
 Red. masses --      5.7292                 1.3881                 1.4148
 Frc consts  --      2.5833                 0.6659                 0.8247
 IR Inten    --     13.7459                 3.6595                 0.2663

                     13                     14                     15
                     A'                     A"                     A'
 Frequencies --   1018.4018              1031.9614              1078.4828
 Red. masses --      6.5521                 1.3080                 1.9552
 Frc consts  --      4.0038                 0.8207                 1.3399
 IR Inten    --      7.3039                 0.0530                 3.4726

                     16                     17                     18
                     A'                     A'                     A'
 Frequencies --   1120.6257              1162.7296              1210.7802
 Red. masses --      1.5372                 1.1928                 1.3293
 Frc consts  --      1.1373                 0.9501                 1.1482
 IR Inten    --     20.0297                30.3756               148.0934

                     19                     20                     21
                     A'                     A'                     A'
 Frequencies --   1312.0748              1348.8829              1371.5885
 Red. masses --      3.7438                 3.1230                 1.3580
 Frc consts  --      3.7973                 3.3478                 1.5053
 IR Inten    --     16.4269                65.2592                38.0745

                     22                     23                     24
                     A'                     A'                     A'
 Frequencies --   1507.6675              1532.7558              1668.4131
 Red. masses --      2.7768                 2.6757                 6.6859
 Frc consts  --      3.7189                 3.7037                10.9652
 IR Inten    --     51.2187               144.1451               109.2339

                     25                     26                     27
                     A'                     A'                     A'
 Frequencies --   1686.7634              3170.8864              3204.3006
 Red. masses --      5.9560                 1.0908                 1.0894
 Frc consts  --      9.9842                 6.4619                 6.5906
 IR Inten    --     97.4012                11.7991                 5.1665

                     28                     29                     30
                     A'                     A'                     A'
 Frequencies --   3226.7584              3237.4128              3840.5570
 Red. masses --      1.0957                 1.0963                 1.0645
 Frc consts  --      6.7214                 6.7699                 9.2509
 IR Inten    --      5.1750                 0.4268               105.1868

 - Thermochemistry -
 -------------------
 Temperature   298.150 Kelvin.  Pressure   1.00000 Atm.
 Atom     1 has atomic number  8 and mass  15.99491

 Molecular mass:    95.03711 amu.
 Principal axes and moments of inertia in atomic units:
                           1         2         3
     Eigenvalues --   305.80902 646.25135 952.06037
           X           -0.02785   0.99961   0.00000
           Y            0.99961   0.02785   0.00000
           Z           -0.00000  -0.00000   1.00000
 This molecule is an asymmetric top.
 Rotational symmetry number  1.
 Rotational temperatures (Kelvin)      0.28323     0.13402     0.09098
 Rotational constants (GHZ):           5.90153     2.79263     1.89562
 Zero-point vibrational energy     247727.1 (Joules/Mol)
                                   59.20820 (Kcal/Mol)
 Warning -- explicit consideration of   6 degrees of freedom as
           vibrations may cause significant error
 Vibrational temperatures:    317.21   612.76   615.34   702.27   799.86
          (Kelvin)            823.89   922.47  1108.32  1167.79  1258.66
                             1298.30  1431.11  1465.25  1484.76  1551.69
                             1612.33  1672.91  1742.04  1887.78  1940.74
                             1973.41  2169.19  2205.29  2400.47  2426.87
                             4562.19  4610.27  4642.58  4657.91  5525.70

 Zero-point correction=                           0.094354 (Hartree/Particle)
 Thermal correction to Energy=                    0.099525
 Thermal correction to Enthalpy=                  0.100469
 Thermal correction to Gibbs Free Energy=         0.065595
 Sum of electronic and zero-point Energies=           -323.430165
 Sum of electronic and thermal Energies=              -323.424994
 Sum of electronic and thermal Enthalpies=            -323.424050
 Sum of electronic and thermal Free Energies=         -323.458924

                     E (Thermal)             CV                S
                      KCal/Mol        Cal/Mol-Kelvin    Cal/Mol-Kelvin
 Total                   62.453             20.078             73.400
 Electronic               0.000              0.000              0.000
 Translational            0.889              2.981             39.566
 Rotational               0.889              2.981             26.734
 Vibrational             60.676             14.116              7.100
 Vibration     1          0.647              1.810              1.955
 Vibration     2          0.788              1.414              0.872
 Vibration     3          0.789              1.410              0.866
 Vibration     4          0.844              1.276              0.689
 Vibration     5          0.911              1.127              0.532
 Vibration     6          0.929              1.090              0.499

 Optimization completed.
    -- Stationary point found.
 Normal termination of Gaussian 09 at Fri Aug 27 00:17:32 2021.
