 Gaussian 09, Revision E.01,
 Gaussian 09:  EM64L-G09RevE.01 30-Nov-2015

 ------------------------------------------------
 #p opt=(calcfc,qst3,MaxCycle=200) freq M062X/gen
 ------------------------------------------------

 ---------------------
 HY_M062X_PC2_OPT_FREQ
 ---------------------
 Symbolic Z-matrix:
 Charge =  0 Multiplicity = 1

 ---------------------
 PY_M062X_PC2_OPT_FREQ
 ---------------------
 Symbolic Z-matrix:
 Charge =  0 Multiplicity = 1

 -------------
 TST_GAS_M062X
 -------------
 Symbolic Z-matrix:
 Charge =  0 Multiplicity = 1

 SCF Done:  E(RM062X) =  -323.443941773     A.U. after   15 cycles
 SCF Done:  E(RM062X) =  -323.451578205     A.U. after   14 cycles
 SCF Done:  E(RM062X) =  -323.462155415     A.U. after   14 cycles
 SCF Done:  E(RM062X) =  -323.463646033     A.U. after   14 cycles
 SCF Done:  E(RM062X) =  -323.468277612     A.U. after   14 cycles
 SCF Done:  E(RM062X) =  -323.463396676     A.U. after   15 cycles
 SCF Done:  E(RM062X) =  -323.461915594     A.U. after   14 cycles
 SCF Done:  E(RM062X) =  -323.462936889     A.U. after   13 cycles
 SCF Done:  E(RM062X) =  -323.463030177     A.U. after   13 cycles
 SCF Done:  E(RM062X) =  -323.463059029     A.U. after   11 cycles
 SCF Done:  E(RM062X) =  -323.461978629     A.U. after   14 cycles
 SCF Done:  E(RM062X) =  -323.462935278     A.U. after   13 cycles
 SCF Done:  E(RM062X) =  -323.463039428     A.U. after   12 cycles
 SCF Done:  E(RM062X) =  -323.463066296     A.U. after   10 cycles
 SCF Done:  E(RM062X) =  -323.463066573     A.U. after    8 cycles
 Optimization completed.
    -- Stationary point found.
 Normal termination of Gaussian 09 at Sat Aug 28 00:56:18 2021.

 ------------------------------------------------------------------
 #P Geom=AllCheck Guess=TCheck SCRF=Check GenChk RM062X/ChkBas Freq
 ------------------------------------------------------------------

 Structure from the checkpoint file:  "TST_GAS_M062X.chk"
 ---------------------
 HY_M062X_PC2_OPT_FREQ
 ---------------------
 Charge =  0 Multiplicity = 1

                         Standard orientation:
 ---------------------------------------------------------------------
 Center     Atomic      Atomic             Coordinates (Angstroms)
 Number     Number       Type             X           Y           Z
 ---------------------------------------------------------------------
      1          8           0       -2.223782    0.031361   -0.000094
      2          7           0       -0.419246   -1.042641    0.000164
      3          6           0       -0.954794    0.201279    0.000058
      4          6           0       -0.114886    1.327944    0.000016
      5          6           0        0.891283   -1.278398   -0.000100
      6          6           0        1.239725    1.085066    0.000015
      7          6           0        1.766824   -0.216212   -0.000025
      8          1           0       -1.681803   -1.221020   -0.000004
      9          1           0       -0.529340    2.323268   -0.000048
     10          1           0        1.213543   -2.310062   -0.000098
     11          1           0        1.922538    1.924748   -0.000000
     12          1           0        2.831123   -0.387410   -0.000025
 ---------------------------------------------------------------------

 SCF Done:  E(RM062X) =  -323.463066573     A.U. after    1 cycles

 The electronic state is 1-A.
 Alpha  occ. eigenvalues --  -19.60752 -14.78588 -10.64479 -10.60774 -10.57759
 Alpha  occ. eigenvalues --  -10.55757 -10.55488  -1.19173  -1.05710  -0.92575
 Alpha  occ. eigenvalues --   -0.86455  -0.76129  -0.71518  -0.63304  -0.59039
 Alpha  occ. eigenvalues --   -0.55841  -0.53248  -0.52526  -0.50321  -0.46297
 Alpha  occ. eigenvalues --   -0.42387  -0.41248  -0.37172  -0.37107  -0.28663
 Alpha virt. eigenvalues --   -0.01993   0.02605   0.03674   0.05130   0.06459
 Alpha virt. eigenvalues --    0.08753   0.08909   0.15623   0.16383   0.16581
 Alpha virt. eigenvalues --    0.18005   0.18283   0.20485   0.21035   0.22439

 Mulliken charges:
               1
     1  O   -0.567834
     2  N   -0.542275
     3  C    0.609408
     4  C   -0.151406
     5  C    0.285258
     6  C    0.120342
     7  C   -0.186872
     8  H    0.300415
     9  H    0.030458
    10  H    0.046367
    11  H    0.035400
    12  H    0.020739
 Sum of Mulliken charges =  -0.00000

 Dipole moment (field-independent basis, Debye):
    X=              3.5838    Y=             -0.4174    Z=             -0.0001  Tot=              3.6080
 Quadrupole moment (field-independent basis, Debye-Ang):
   XX=            -44.9562   YY=            -34.2957   ZZ=            -43.2966
   XY=              1.0078   XZ=             -0.0004   YZ=              0.0004

  Exact polarizability:  87.492  -1.369  73.390  -0.000   0.000  37.451
 Approx polarizability: 116.328  -3.311  97.273   0.000   0.001  49.288

 ******    1 imaginary frequencies (negative Signs) ******

                      1                      2                      3
                      A                      A                      A
 Frequencies --  -1834.2438               196.3418               414.5759
 Red. masses --      1.0758                 6.7011                 3.3980
 Frc consts  --      2.1324                 0.1522                 0.3441
 IR Inten    --    537.1481                 0.0566                 2.1222

                      4                      5                      6
                      A                      A                      A
 Frequencies --    494.3917               499.9179               611.4361
 Red. masses --      2.4414                 7.0966                 7.0868
 Frc consts  --      0.3516                 1.0450                 1.5610
 IR Inten    --     19.0021                 4.0097                 2.7218

                      7                      8                      9
                      A                      A                      A
 Frequencies --    678.0307               747.1103               785.9894
 Red. masses --      6.9054                 2.6083                 1.5095
 Frc consts  --      1.8704                 0.8578                 0.5494
 IR Inten    --      0.1162                 7.9153                57.6530

                     10                     11                     12
                      A                      A                      A
 Frequencies --    867.8733               911.6738               999.0256
 Red. masses --      1.3613                 5.7245                 1.3609
 Frc consts  --      0.6041                 2.8033                 0.8003
 IR Inten    --      0.6480                 7.6400                 1.7257

                     13                     14                     15
                      A                      A                      A
 Frequencies --   1017.9246              1022.5897              1051.8519
 Red. masses --      5.3696                 1.3026                 2.0547
 Frc consts  --      3.2781                 0.8026                 1.3394
 IR Inten    --     15.8947                 0.0513                 4.7547

                     16                     17                     18
                      A                      A                      A
 Frequencies --   1136.0940              1150.6253              1174.3207
 Red. masses --      1.1928                 1.3809                 1.1479
 Frc consts  --      0.9071                 1.0772                 0.9327
 IR Inten    --     69.5695                 7.6801                17.8608

                     19                     20                     21
                      A                      A                      A
 Frequencies --   1273.2736              1331.1334              1423.5997
 Red. masses --      3.1106                 1.8141                 2.3666
 Frc consts  --      2.9713                 1.8938                 2.8259
 IR Inten    --      5.3711                31.7365                10.8307

                     22                     23                     24
                      A                      A                      A
 Frequencies --   1504.5600              1569.7434              1625.2992
 Red. masses --      2.6768                 5.0390                 5.7805
 Frc consts  --      3.5701                 7.3157                 8.9967
 IR Inten    --      4.9708               378.4887                41.7803

                     25                     26                     27
                      A                      A                      A
 Frequencies --   1706.3513              2155.3083              3192.3240
 Red. masses --      6.8384                 1.0688                 1.0899
 Frc consts  --     11.7312                 2.9254                 6.5440
 IR Inten    --    524.6375                86.3007                 4.8006

                     28                     29                     30
                      A                      A                      A
 Frequencies --   3227.5533              3230.1925              3244.4181
 Red. masses --      1.0895                 1.0953                 1.0984
 Frc consts  --      6.6870                 6.7338                 6.8119
 IR Inten    --      1.2929                 0.6046                 2.6395

 - Thermochemistry -
 -------------------
 Temperature   298.150 Kelvin.  Pressure   1.00000 Atm.
 Atom     1 has atomic number  8 and mass  15.99491

 Molecular mass:    95.03711 amu.
 Principal axes and moments of inertia in atomic units:
                           1         2         3
     Eigenvalues --   312.06310 622.69553 934.75863
           X            0.99997   0.00725  -0.00000
           Y           -0.00725   0.99997   0.00000
           Z            0.00000  -0.00000   1.00000
 This molecule is an asymmetric top.
 Rotational symmetry number  1.
 Rotational temperatures (Kelvin)      0.27755     0.13909     0.09266
 Rotational constants (GHZ):           5.78326     2.89827     1.93070
    1 imaginary frequencies ignored.
 Zero-point vibrational energy     234728.4 (Joules/Mol)
                                   56.10144 (Kcal/Mol)
 Warning -- explicit consideration of   5 degrees of freedom as
           vibrations may cause significant error
 Vibrational temperatures:    282.49   596.48   711.32   719.27   879.72
          (Kelvin)            975.53  1074.92  1130.86  1248.67  1311.69
                             1437.37  1464.56  1471.28  1513.38  1634.58
                             1655.49  1689.58  1831.95  1915.20  2048.24
                             2164.72  2258.51  2338.44  2455.06  3101.00
                             4593.04  4643.72  4647.52  4667.99

 Zero-point correction=                           0.089403 (Hartree/Particle)
 Thermal correction to Energy=                    0.094355
 Thermal correction to Enthalpy=                  0.095299
 Thermal correction to Gibbs Free Energy=         0.060710
 Sum of electronic and zero-point Energies=           -323.373663
 Sum of electronic and thermal Energies=              -323.368712
 Sum of electronic and thermal Enthalpies=            -323.367768
 Sum of electronic and thermal Free Energies=         -323.402357

                     E (Thermal)             CV                S
                      KCal/Mol        Cal/Mol-Kelvin    Cal/Mol-Kelvin
 Total                   59.209             18.824             72.799
 Electronic               0.000              0.000              0.000
 Translational            0.889              2.981             39.566
 Rotational               0.889              2.981             26.699
 Vibrational             57.431             12.862              6.534
 Vibration     1          0.636              1.845              2.167
 Vibration     2          0.778              1.439              0.911
 Vibration     3          0.850              1.262              0.672
 Vibration     4          0.855              1.250              0.658
 Vibration     5          0.971              1.008              0.430

 Optimization completed.
    -- Stationary point found.
 Normal termination of Gaussian 09 at Sat Aug 28 00:57:11 2021.
