 Gaussian 09, Revision E.01,
 Gaussian 09:  EM64L-G09RevE.01 30-Nov-2015

 -------------------
 #p opt freq M06/gen
 -------------------

 -----------------------
 HY_H2O_M06_PC2_OPT_FREQ
 -----------------------
 Symbolic Z-matrix:
 Charge =  0 Multiplicity = 1

 SCF Done:  E(RM06) =  -399.881528605     A.U. after   15 cycles
 SCF Done:  E(RM06) =  -399.881912314     A.U. after   12 cycles
 SCF Done:  E(RM06) =  -399.881926793     A.U. after    8 cycles
 SCF Done:  E(RM06) =  -399.881933988     A.U. after    8 cycles
 SCF Done:  E(RM06) =  -399.881938315     A.U. after    7 cycles
 SCF Done:  E(RM06) =  -399.881944204     A.U. after    8 cycles
 SCF Done:  E(RM06) =  -399.881946673     A.U. after    7 cycles
 SCF Done:  E(RM06) =  -399.881947721     A.U. after    7 cycles
 Optimization completed.
    -- Stationary point found.
 Normal termination of Gaussian 09 at Fri Aug 27 01:01:44 2021.

 ----------------------------------------------------------------
 #P Geom=AllCheck Guess=TCheck SCRF=Check GenChk RM06/ChkBas Freq
 ----------------------------------------------------------------

 Structure from the checkpoint file:  "HY_H2O_M06_PC2_OPT_FREQ.chk"
 -----------------------
 HY_H2O_M06_PC2_OPT_FREQ
 -----------------------
 Charge =  0 Multiplicity = 1

                         Standard orientation:
 ---------------------------------------------------------------------
 Center     Atomic      Atomic             Coordinates (Angstroms)
 Number     Number       Type             X           Y           Z
 ---------------------------------------------------------------------
      1          8           0        1.201790    1.441926   -0.003359
      2          7           0        0.302884   -0.665189   -0.006192
      3          6           0        0.135126    0.649772   -0.000568
      4          6           0       -1.127883    1.248339    0.008633
      5          6           0       -0.783311   -1.439396   -0.006239
      6          6           0       -2.231152    0.433207    0.009972
      7          6           0       -2.066904   -0.948348    0.001932
      8          1           0        2.014929    0.898595   -0.018465
      9          1           0       -1.200813    2.325970    0.012754
     10          1           0       -0.603722   -2.509085   -0.013694
     11          1           0       -3.222933    0.866438    0.016315
     12          1           0       -2.912844   -1.619591    0.001264
     13          8           0        3.100281   -0.576649   -0.081938
     14          1           0        3.600325   -0.873142    0.676191
     15          1           0        2.233056   -1.016530   -0.031033
 ---------------------------------------------------------------------

 SCF Done:  E(RM06) =  -399.881947721     A.U. after    1 cycles

 The electronic state is 1-A.
 Alpha  occ. eigenvalues --  -19.22645 -19.20395 -14.38834 -10.33850 -10.28195
 Alpha  occ. eigenvalues --  -10.26208 -10.24452 -10.24245  -1.09999  -1.03870
 Alpha  occ. eigenvalues --   -0.96152  -0.82627  -0.77296  -0.66477  -0.64480
 Alpha  occ. eigenvalues --   -0.57244  -0.55439  -0.52858  -0.49890  -0.46086
 Alpha  occ. eigenvalues --   -0.45969  -0.42957  -0.42053  -0.40435  -0.38257
 Alpha  occ. eigenvalues --   -0.37488  -0.33869  -0.31170  -0.29665  -0.25493
 Alpha virt. eigenvalues --   -0.03153  -0.00286   0.00669   0.01209   0.02063
 Alpha virt. eigenvalues --    0.03590   0.04930   0.08874   0.10628   0.13476
 Alpha virt. eigenvalues --    0.14724   0.16529   0.16760   0.17874   0.19063

 Mulliken charges:
               1
     1  O   -0.405962
     2  N   -0.505958
     3  C    0.571714
     4  C   -0.134954
     5  C    0.111324
     6  C    0.065058
     7  C   -0.119721
     8  H    0.213115
     9  H    0.046384
    10  H    0.058966
    11  H    0.049135
    12  H    0.030057
    13  O   -0.437032
    14  H    0.224986
    15  H    0.232887
 Sum of Mulliken charges =  -0.00000

 Dipole moment (field-independent basis, Debye):
    X=             -1.6280    Y=             -1.3132    Z=              1.3193  Tot=              2.4730
 Quadrupole moment (field-independent basis, Debye-Ang):
   XX=            -41.5977   YY=            -44.6510   ZZ=            -48.7804
   XY=             -2.9467   XZ=              5.2768   YZ=             -1.3104

  Exact polarizability:  96.182   2.606  83.510   0.882  -0.140  43.989
 Approx polarizability: 135.654   6.320 130.449   0.987  -0.329  63.587

                      1                      2                      3
                      A                      A                      A
 Frequencies --     59.6817               153.2485               198.2726
 Red. masses --      5.0506                 4.9033                 7.9997
 Frc consts  --      0.0106                 0.0678                 0.1853
 IR Inten    --      4.0138                18.9816                 7.8203

                      4                      5                      6
                      A                      A                      A
 Frequencies --    211.4330               269.9573               368.8737
 Red. masses --      4.3237                 1.1015                 1.1818
 Frc consts  --      0.1139                 0.0473                 0.0947
 IR Inten    --      3.5278               110.3898                65.6461

                      7                      8                      9
                      A                      A                      A
 Frequencies --    424.7661               472.8889               531.6720
 Red. masses --      3.0211                 4.6355                 2.5430
 Frc consts  --      0.3212                 0.6107                 0.4235
 IR Inten    --     12.7384                27.5127                10.8990

                     10                     11                     12
                      A                      A                      A
 Frequencies --    573.6621               637.6260               721.7998
 Red. masses --      6.7963                 6.3380                 1.1069
 Frc consts  --      1.3178                 1.5182                 0.3398
 IR Inten    --      0.8868                 0.6090               198.1902

                     13                     14                     15
                      A                      A                      A
 Frequencies --    752.9627               796.9421               801.8207
 Red. masses --      1.7281                 1.2017                 1.9115
 Frc consts  --      0.5773                 0.4497                 0.7241
 IR Inten    --     47.5320                16.3299               140.1106

                     16                     17                     18
                      A                      A                      A
 Frequencies --    872.8346               884.6013               983.6434
 Red. masses --      5.7338                 1.4128                 1.3951
 Frc consts  --      2.5737                 0.6514                 0.7953
 IR Inten    --      9.4574                 0.9239                 0.5699

                     19                     20                     21
                      A                      A                      A
 Frequencies --   1005.1992              1009.3013              1064.2446
 Red. masses --      1.3073                 6.5197                 1.9571
 Frc consts  --      0.7783                 3.9131                 1.3060
 IR Inten    --      0.1991                12.3433                 4.9103

                     22                     23                     24
                      A                      A                      A
 Frequencies --   1116.4077              1150.6407              1254.9499
 Red. masses --      1.5042                 1.1138                 1.7044
 Frc consts  --      1.1046                 0.8688                 1.5815
 IR Inten    --      2.9012                14.5899                89.3593

                     25                     26                     27
                      A                      A                      A
 Frequencies --   1317.6354              1359.3829              1400.7598
 Red. masses --      2.8207                 2.9684                 1.4150
 Frc consts  --      2.8853                 3.2319                 1.6358
 IR Inten    --     10.0129                49.9437               114.6002

                     28                     29                     30
                      A                      A                      A
 Frequencies --   1501.5475              1517.3505              1619.9060
 Red. masses --      2.2350                 3.1489                 1.3851
 Frc consts  --      2.9690                 4.2716                 2.1415
 IR Inten    --      5.2547               201.6426                93.6476

                     31                     32                     33
                      A                      A                      A
 Frequencies --   1634.0767              1668.9378              3159.6986
 Red. masses --      2.7752                 5.0520                 1.0896
 Frc consts  --      4.3661                 8.2908                 6.4095
 IR Inten    --     63.5210               152.1233                16.2620

                     34                     35                     36
                      A                      A                      A
 Frequencies --   3188.5897              3212.4181              3217.5227
 Red. masses --      1.0885                 1.0937                 1.0967
 Frc consts  --      6.5207                 6.6496                 6.6890
 IR Inten    --      6.7686                 8.0986                 1.5969

                     37                     38                     39
                      A                      A                      A
 Frequencies --   3523.8385              3629.9717              3957.9049
 Red. masses --      1.0662                 1.0600                 1.0699
 Frc consts  --      7.8003                 8.2291                 9.8746
 IR Inten    --    274.3423              1013.2235               118.3489

 - Thermochemistry -
 -------------------
 Temperature   298.150 Kelvin.  Pressure   1.00000 Atm.
 Atom     1 has atomic number  8 and mass  15.99491

 Molecular mass:   113.04768 amu.
 Principal axes and moments of inertia in atomic units:
                           1         2         3
     Eigenvalues --   445.494851269.870691711.41301
           X            0.99990  -0.01266   0.00637
           Y            0.01269   0.99991  -0.00424
           Z           -0.00632   0.00432   0.99997
 This molecule is an asymmetric top.
 Rotational symmetry number  1.
 Warning -- assumption of classical behavior for rotation
           may cause significant error
 Rotational temperatures (Kelvin)      0.19442     0.06821     0.05061
 Rotational constants (GHZ):           4.05109     1.42120     1.05453
 Zero-point vibrational energy     312386.7 (Joules/Mol)
                                   74.66220 (Kcal/Mol)
 Warning -- explicit consideration of  10 degrees of freedom as
           vibrations may cause significant error
 Vibrational temperatures:     85.87   220.49   285.27   304.20   388.41
          (Kelvin)            530.73   611.14   680.38   764.96   825.37
                              917.40  1038.51  1083.34  1146.62  1153.64
                             1255.81  1272.74  1415.24  1446.26  1452.16
                             1531.21  1606.26  1655.51  1805.59  1895.78
                             1955.85  2015.38  2160.39  2183.13  2330.68
                             2351.07  2401.23  4546.10  4587.66  4621.95
                             4629.29  5070.01  5222.71  5694.54

 Zero-point correction=                           0.118982 (Hartree/Particle)
 Thermal correction to Energy=                    0.126934
 Thermal correction to Enthalpy=                  0.127878
 Thermal correction to Gibbs Free Energy=         0.086383
 Sum of electronic and zero-point Energies=           -399.762966
 Sum of electronic and thermal Energies=              -399.755014
 Sum of electronic and thermal Enthalpies=            -399.754070
 Sum of electronic and thermal Free Energies=         -399.795565

                     E (Thermal)             CV                S
                      KCal/Mol        Cal/Mol-Kelvin    Cal/Mol-Kelvin
 Total                   79.652             29.367             87.333
 Electronic               0.000              0.000              0.000
 Translational            0.889              2.981             40.084
 Rotational               0.889              2.981             28.361
 Vibrational             77.875             23.405             18.888
 Vibration     1          0.597              1.974              4.468
 Vibration     2          0.619              1.899              2.632
 Vibration     3          0.637              1.842              2.149
 Vibration     4          0.643              1.823              2.031
 Vibration     5          0.674              1.728              1.596
 Vibration     6          0.741              1.536              1.084
 Vibration     7          0.787              1.416              0.876
 Vibration     8          0.830              1.310              0.730
 Vibration     9          0.887              1.180              0.583
 Vibration    10          0.930              1.088              0.497

 Normal termination of Gaussian 09 at Fri Aug 27 01:03:00 2021.
