 Gaussian 09, Revision E.01,
 Gaussian 09:  EM64L-G09RevE.01 30-Nov-2015

 ----------------------------------------------
 #p opt=(calcfc,qst3,MaxCycle=200) freq M06/gen
 ----------------------------------------------

 -----------------------
 HY_H2O_M06_PC2_OPT_FREQ
 -----------------------
 Symbolic Z-matrix:
 Charge =  0 Multiplicity = 1

 -----------------------
 PY_H2O_M06_PC2_OPT_FREQ
 -----------------------
 Symbolic Z-matrix:
 Charge =  0 Multiplicity = 1

 -----------
 TST_H2O_M06
 -----------
 Symbolic Z-matrix:
 Charge =  0 Multiplicity = 1

 SCF Done:  E(RM06) =  -399.805502788     A.U. after   15 cycles
 SCF Done:  E(RM06) =  -399.795684613     A.U. after   14 cycles
 SCF Done:  E(RM06) =  -399.785408968     A.U. after   14 cycles
 SCF Done:  E(RM06) =  -399.777086066     A.U. after   14 cycles
 SCF Done:  E(RM06) =  -399.773501538     A.U. after   14 cycles
 SCF Done:  E(RM06) =  -399.801567448     A.U. after   15 cycles
 SCF Done:  E(RM06) =  -399.830775798     A.U. after   14 cycles
 SCF Done:  E(RM06) =  -399.841540517     A.U. after   14 cycles
 SCF Done:  E(RM06) =  -399.847193442     A.U. after   14 cycles
 SCF Done:  E(RM06) =  -399.850624280     A.U. after   14 cycles
 SCF Done:  E(RM06) =  -399.857870766     A.U. after   11 cycles
 SCF Done:  E(RM06) =  -399.857885557     A.U. after   11 cycles
 SCF Done:  E(RM06) =  -399.857895359     A.U. after   11 cycles
 SCF Done:  E(RM06) =  -399.857900290     A.U. after    8 cycles
 SCF Done:  E(RM06) =  -399.857902860     A.U. after    8 cycles
 SCF Done:  E(RM06) =  -399.857904182     A.U. after    7 cycles
 SCF Done:  E(RM06) =  -399.857905225     A.U. after    7 cycles
 SCF Done:  E(RM06) =  -399.857905808     A.U. after    7 cycles
 SCF Done:  E(RM06) =  -399.857906309     A.U. after    7 cycles
 Optimization completed.
    -- Stationary point found.
 Normal termination of Gaussian 09 at Sat Aug 28 01:26:01 2021.

 ----------------------------------------------------------------
 #P Geom=AllCheck Guess=TCheck SCRF=Check GenChk RM06/ChkBas Freq
 ----------------------------------------------------------------

 Structure from the checkpoint file:  "TST_H2O_M06.chk"
 -----------------------
 HY_H2O_M06_PC2_OPT_FREQ
 -----------------------
 Charge =  0 Multiplicity = 1

                         Standard orientation:
 ---------------------------------------------------------------------
 Center     Atomic      Atomic             Coordinates (Angstroms)
 Number     Number       Type             X           Y           Z
 ---------------------------------------------------------------------
      1          8           0        1.372921    1.312218   -0.007700
      2          7           0        0.311048   -0.687702   -0.005550
      3          6           0        0.270666    0.672120   -0.001265
      4          6           0       -0.993829    1.303784    0.009243
      5          6           0       -0.805678   -1.424808   -0.005557
      6          6           0       -2.125049    0.540866    0.010588
      7          6           0       -2.047579   -0.858634    0.002601
      8          1           0        2.259189    0.440003   -0.031198
      9          1           0       -1.022969    2.383318    0.012970
     10          1           0       -0.667590   -2.498877   -0.013816
     11          1           0       -3.094740    1.022668    0.016777
     12          1           0       -2.932756   -1.475726    0.001430
     13          8           0        2.718947   -0.641030   -0.083602
     14          1           0        3.232444   -0.838817    0.697899
     15          1           0        1.522955   -0.988123   -0.008467
 ---------------------------------------------------------------------

 SCF Done:  E(RM06) =  -399.857906309     A.U. after    1 cycles

 The electronic state is 1-A.
 Alpha  occ. eigenvalues --  -19.19478 -19.18708 -14.40943 -10.34190 -10.29424
 Alpha  occ. eigenvalues --  -10.26628 -10.24517 -10.24442  -1.08266  -1.01743
 Alpha  occ. eigenvalues --   -0.96677  -0.83156  -0.77321  -0.67029  -0.64205
 Alpha  occ. eigenvalues --   -0.57248  -0.55905  -0.51560  -0.49064  -0.47387
 Alpha  occ. eigenvalues --   -0.46311  -0.44984  -0.41596  -0.40381  -0.37567
 Alpha  occ. eigenvalues --   -0.36783  -0.32213  -0.32114  -0.29241  -0.24657
 Alpha virt. eigenvalues --   -0.04061  -0.00027   0.00441   0.01210   0.02111
 Alpha virt. eigenvalues --    0.03617   0.04986   0.10778   0.10936   0.12796
 Alpha virt. eigenvalues --    0.14452   0.16256   0.16348   0.17354   0.19021

 Mulliken charges:
               1
     1  O   -0.555779
     2  N   -0.396568
     3  C    0.523413
     4  C   -0.128620
     5  C    0.115065
     6  C    0.061873
     7  C   -0.118835
     8  H    0.308404
     9  H    0.051573
    10  H    0.069233
    11  H    0.050249
    12  H    0.032878
    13  O   -0.535303
    14  H    0.220935
    15  H    0.301482
 Sum of Mulliken charges =  -0.00000

 Dipole moment (field-independent basis, Debye):
    X=             -2.1726    Y=             -1.7892    Z=              1.3619  Tot=              3.1266
 Quadrupole moment (field-independent basis, Debye-Ang):
   XX=            -43.2068   YY=            -45.2045   ZZ=            -48.6202
   XY=             -3.0624   XZ=              4.9185   YZ=             -1.3174

  Exact polarizability: 102.667   2.744  83.425   1.065  -0.269  43.556
 Approx polarizability: 146.226   9.386 131.634   1.148  -0.394  63.507

 ******    1 imaginary frequencies (negative Signs) ******

                      1                      2                      3
                      A                      A                      A
 Frequencies --  -1301.5795               107.0929               207.5928
 Red. masses --      1.0699                 5.2220                 5.1906
 Frc consts  --      1.0679                 0.0353                 0.1318
 IR Inten    --    269.9806                 3.9977                 1.7585

                      4                      5                      6
                      A                      A                      A
 Frequencies --    339.0929               406.3731               461.4801
 Red. masses --      5.3061                 3.2216                 3.4009
 Frc consts  --      0.3595                 0.3135                 0.4267
 IR Inten    --      1.0955                 5.1876                22.0140

                      7                      8                      9
                      A                      A                      A
 Frequencies --    508.0415               537.6610               580.6553
 Red. masses --      1.5848                 2.0491                 6.7032
 Frc consts  --      0.2410                 0.3490                 1.3316
 IR Inten    --     22.0665                22.4215                10.7312

                     10                     11                     12
                      A                      A                      A
 Frequencies --    624.3208               643.5326               736.8011
 Red. masses --      1.3269                 3.8288                 7.2833
 Frc consts  --      0.3047                 0.9342                 2.3296
 IR Inten    --     53.0856                45.5703                 5.3831

                     13                     14                     15
                      A                      A                      A
 Frequencies --    755.7356               797.1288               875.0911
 Red. masses --      1.7681                 2.0243                 1.7056
 Frc consts  --      0.5950                 0.7578                 0.7695
 IR Inten    --     20.1654                39.8554                 5.9304

                     16                     17                     18
                      A                      A                      A
 Frequencies --    875.8064               974.9301              1005.4042
 Red. masses --      4.7093                 1.3668                 1.3060
 Frc consts  --      2.1283                 0.7654                 0.7778
 IR Inten    --      3.6868                 1.1246                 0.5773

                     19                     20                     21
                      A                      A                      A
 Frequencies --   1013.2345              1049.2360              1137.9190
 Red. masses --      4.3078                 2.1786                 1.3761
 Frc consts  --      2.6057                 1.4131                 1.0499
 IR Inten    --    190.3417                 6.3691                25.6377

                     22                     23                     24
                      A                      A                      A
 Frequencies --   1159.3903              1277.8623              1309.0376
 Red. masses --      1.1146                 2.4555                 1.3295
 Frc consts  --      0.8827                 2.3624                 1.3423
 IR Inten    --     11.1678                 8.7737               551.9421

                     25                     26                     27
                      A                      A                      A
 Frequencies --   1342.0648              1404.7027              1414.2378
 Red. masses --      1.5039                 2.1532                 1.1199
 Frc consts  --      1.5959                 2.5032                 1.3197
 IR Inten    --    989.7672               225.4825              1820.4941

                     28                     29                     30
                      A                      A                      A
 Frequencies --   1481.0865              1492.9059              1569.0052
 Red. masses --      1.2106                 2.3504                 2.7007
 Frc consts  --      1.5647                 3.0864                 3.9171
 IR Inten    --   1622.4994               401.1500                99.6804

                     31                     32                     33
                      A                      A                      A
 Frequencies --   1596.0688              1692.3278              1746.8662
 Red. masses --      5.4109                 2.9940                 1.6463
 Frc consts  --      8.1212                 5.0521                 2.9599
 IR Inten    --     18.4220               387.4849               630.9086

                     34                     35                     36
                      A                      A                      A
 Frequencies --   1957.6150              3181.2685              3185.3641
 Red. masses --      1.0410                 1.0884                 1.0906
 Frc consts  --      2.3505                 6.4900                 6.5197
 IR Inten    --     28.1193                 5.2367                 9.1501

                     37                     38                     39
                      A                      A                      A
 Frequencies --   3215.4850              3220.6475              3938.2461
 Red. masses --      1.0948                 1.0956                 1.0660
 Frc consts  --      6.6694                 6.6957                 9.7410
 IR Inten    --      5.5766                 0.8464                65.4015

 - Thermochemistry -
 -------------------
 Temperature   298.150 Kelvin.  Pressure   1.00000 Atm.
 Atom     1 has atomic number  8 and mass  15.99491

 Molecular mass:   113.04768 amu.
 Principal axes and moments of inertia in atomic units:
                           1         2         3
     Eigenvalues --   431.908311118.621291546.32853
           X            0.99987  -0.01448   0.00674
           Y            0.01451   0.99988  -0.00448
           Z           -0.00667   0.00457   0.99997
 This molecule is an asymmetric top.
 Rotational symmetry number  1.
 Rotational temperatures (Kelvin)      0.20054     0.07743     0.05601
 Rotational constants (GHZ):           4.17853     1.61336     1.16711
    1 imaginary frequencies ignored.
 Zero-point vibrational energy     297997.6 (Joules/Mol)
                                   71.22314 (Kcal/Mol)
 Warning -- explicit consideration of   8 degrees of freedom as
           vibrations may cause significant error
 Vibrational temperatures:    154.08   298.68   487.88   584.68   663.97
          (Kelvin)            730.96   773.57   835.43   898.26   925.90
                             1060.09  1087.33  1146.89  1259.06  1260.09
                             1402.71  1446.55  1457.82  1509.61  1637.21
                             1668.10  1838.56  1883.41  1930.93  2021.05
                             2034.77  2130.95  2147.96  2257.45  2296.38
                             2434.88  2513.35  2816.57  4577.13  4583.02
                             4626.36  4633.79  5666.25

 Zero-point correction=                           0.113501 (Hartree/Particle)
 Thermal correction to Energy=                    0.120047
 Thermal correction to Enthalpy=                  0.120991
 Thermal correction to Gibbs Free Energy=         0.082680
 Sum of electronic and zero-point Energies=           -399.744405
 Sum of electronic and thermal Energies=              -399.737859
 Sum of electronic and thermal Enthalpies=            -399.736915
 Sum of electronic and thermal Free Energies=         -399.775226

                     E (Thermal)             CV                S
                      KCal/Mol        Cal/Mol-Kelvin    Cal/Mol-Kelvin
 Total                   75.331             25.665             80.632
 Electronic               0.000              0.000              0.000
 Translational            0.889              2.981             40.084
 Rotational               0.889              2.981             28.104
 Vibrational             73.553             19.703             12.445
 Vibration     1          0.606              1.944              3.321
 Vibration     2          0.641              1.829              2.065
 Vibration     3          0.719              1.597              1.216
 Vibration     4          0.771              1.456              0.940
 Vibration     5          0.819              1.335              0.762
 Vibration     6          0.863              1.232              0.638
 Vibration     7          0.893              1.167              0.570
 Vibration     8          0.937              1.073              0.484

 Normal termination of Gaussian 09 at Sat Aug 28 01:27:24 2021.
