 Gaussian 09, Revision E.01,
 Gaussian 09:  EM64L-G09RevE.01 30-Nov-2015

 ---------------------
 #p G3 geom=checkpoint
 ---------------------

 -----
 PY_G3
 -----
 Structure from the checkpoint file:  "PY_G3.chk"
 Charge =  0 Multiplicity = 1

 SCF Done:  E(RHF) =  -321.564572330     A.U. after   15 cycles
 SCF Done:  E(RHF) =  -321.567027169     A.U. after   13 cycles
 SCF Done:  E(RHF) =  -321.567223077     A.U. after   11 cycles
 SCF Done:  E(RHF) =  -321.567250594     A.U. after   10 cycles
 SCF Done:  E(RHF) =  -321.567251575     A.U. after    9 cycles
 Optimization completed.
    -- Stationary point found.
 Normal termination of Gaussian 09 at Fri Sep  3 00:21:47 2021.

 -------------------------------------------------------
 #P Geom=AllCheck Guess=TCheck SCRF=Check HF/GTBas1 Freq
 -------------------------------------------------------

 Structure from the checkpoint file:  "PY_G3.chk"
 -----
 PY_G3
 -----
 Charge =  0 Multiplicity = 1

 SCF Done:  E(RHF) =  -321.567251575     A.U. after    1 cycles

  Exact polarizability:  61.105  -0.418  74.753  -0.000  -0.000  22.032
 Approx polarizability:  55.262  -1.789  69.405  -0.000   0.000  24.830

                      1                      2                      3
                     A"                     A"                     A'
 Frequencies --    190.9665               413.0498               495.5875
 Red. masses --      5.8478                 3.2079                 6.1844
 Frc consts  --      0.1256                 0.3225                 0.8949
 IR Inten    --      1.9206                 3.0452                 9.0115
 Raman Activ --      1.2421                 2.1995                 0.8008

                      4                      5                      6
                     A"                     A'                     A'
 Frequencies --    534.1222               589.4723               663.1371
 Red. masses --      2.0957                 7.9245                 6.7672
 Frc consts  --      0.3523                 1.6224                 1.7533
 IR Inten    --     52.6111                10.4844                 0.0223
 Raman Activ --      1.0229                 4.2333                 3.4737

                      7                      8                      9
                     A"                     A"                     A"
 Frequencies --    729.1657               811.0094               856.3094
 Red. masses --      1.2635                 1.7334                 1.7850
 Frc consts  --      0.3958                 0.6717                 0.7712
 IR Inten    --     58.3133                 0.5321               107.2129
 Raman Activ --      0.9115                 1.8449                 4.6119

                     10                     11                     12
                     A'                     A"                     A'
 Frequencies --    884.6076               944.9731              1071.9395
 Red. masses --      5.5924                 1.8138                 2.4620
 Frc consts  --      2.5784                 0.9543                 1.6668
 IR Inten    --     11.7306                40.1389                 4.3338
 Raman Activ --     14.1072                 2.5786                 5.7147

                     13                     14                     15
                     A'                     A"                     A"
 Frequencies --   1079.6041              1080.4878              1136.5320
 Red. masses --      5.8166                 1.3026                 1.3125
 Frc consts  --      3.9943                 0.8960                 0.9988
 IR Inten    --     16.3283                 0.2129                 0.3388
 Raman Activ --      0.4014                 1.5079                 3.1950

                     16                     17                     18
                     A'                     A'                     A'
 Frequencies --   1200.2977              1268.8815              1327.9635
 Red. masses --      1.7271                 1.1453                 1.1681
 Frc consts  --      1.4661                 1.0864                 1.2137
 IR Inten    --     24.5897                21.3474                29.1643
 Raman Activ --      5.8881                 3.3086                12.6555

                     19                     20                     21
                     A'                     A'                     A'
 Frequencies --   1366.6728              1520.5022              1586.4965
 Red. masses --      3.1891                 1.5570                 1.8540
 Frc consts  --      3.5095                 2.1209                 2.7493
 IR Inten    --      9.8060                 3.0623                13.1086
 Raman Activ --     35.8806                21.0553                 4.8877

                     22                     23                     24
                     A'                     A'                     A'
 Frequencies --   1626.5053              1748.4499              1845.4838
 Red. masses --      2.2263                 4.5733                 4.6997
 Frc consts  --      3.4702                 8.2373                 9.4307
 IR Inten    --      7.6946                95.6332                59.7924
 Raman Activ --     20.1730                71.0287                 5.2649

                     25                     26                     27
                     A'                     A'                     A'
 Frequencies --   1956.9248              3371.0424              3402.5772
 Red. masses --      8.0465                 1.0907                 1.0899
 Frc consts  --     18.1553                 7.3024                 7.4343
 IR Inten    --    832.5785                14.7560                 1.9300
 Raman Activ --     19.5110                82.6167                64.1274

                     28                     29                     30
                     A'                     A'                     A'
 Frequencies --   3414.0730              3423.0481              3861.4634
 Red. masses --      1.0964                 1.1013                 1.0791
 Frc consts  --      7.5294                 7.6029                 9.4800
 IR Inten    --      6.4843                 9.6363                83.4545
 Raman Activ --     58.8080               180.7106                75.7046

 - Thermochemistry -
 -------------------
 Temperature   298.150 Kelvin.  Pressure   1.00000 Atm.
 Atom     1 has atomic number  8 and mass  15.99491

 Molecular mass:    95.03711 amu.
 Principal axes and moments of inertia in atomic units:
                           1         2         3
     Eigenvalues --   315.42474 633.96995 949.39469
           X           -0.04677   0.99891   0.00000
           Y            0.99891   0.04677   0.00000
           Z            0.00000   0.00000   1.00000
 This molecule is an asymmetric top.
 Rotational symmetry number  1.
 Rotational temperatures (Kelvin)      0.27459     0.13662     0.09123
 Rotational constants (GHZ):           5.72162     2.84673     1.90094
 Zero-point vibrational energy     265579.0 (Joules/Mol)
                                   63.47491 (Kcal/Mol)
 Warning -- explicit consideration of   5 degrees of freedom as
           vibrations may cause significant error
 Vibrational temperatures:    274.76   594.29   713.04   768.48   848.12
          (Kelvin)            954.11  1049.11  1166.86  1232.04  1272.75
                             1359.60  1542.28  1553.31  1554.58  1635.21
                             1726.96  1825.64  1910.64  1966.33  2187.66
                             2282.61  2340.18  2515.63  2655.24  2815.57
                             4850.17  4895.54  4912.08  4925.00  5555.78

 Zero-point correction=                           0.101154 (Hartree/Particle)
 Thermal correction to Energy=                    0.106089
 Thermal correction to Enthalpy=                  0.107033
 Thermal correction to Gibbs Free Energy=         0.072431
 Sum of electronic and zero-point Energies=           -321.466098
 Sum of electronic and thermal Energies=              -321.461163
 Sum of electronic and thermal Enthalpies=            -321.460219
 Sum of electronic and thermal Free Energies=         -321.494820

                     E (Thermal)             CV                S
                      KCal/Mol        Cal/Mol-Kelvin    Cal/Mol-Kelvin
 Total                   66.572             18.589             72.825
 Electronic               0.000              0.000              0.000
 Translational            0.889              2.981             39.566
 Rotational               0.889              2.981             26.743
 Vibrational             64.794             12.628              6.516
 Vibration     1          0.634              1.852              2.218
 Vibration     2          0.777              1.442              0.916
 Vibration     3          0.851              1.260              0.669
 Vibration     4          0.889              1.175              0.578
 Vibration     5          0.947              1.054              0.468

 Optimization completed.
    -- Stationary point found.
 Normal termination of Gaussian 09 at Fri Sep  3 00:21:55 2021.

 ------------------------------------------------------------------
 #P Geom=AllCheck Guess=TCheck SCRF=Check MP2(Full)/GTBas1 Opt=RCFC
 ------------------------------------------------------------------

 Structure from the checkpoint file:  "PY_G3.chk"
 -----
 PY_G3
 -----
 Charge =  0 Multiplicity = 1

 SCF Done:  E(RHF) =  -321.567251575     A.U. after    1 cycles
 E2 =    -0.9888461753D+00 EUMP2 =    -0.32255609775007D+03
 SCF Done:  E(RHF) =  -321.563760401     A.U. after   13 cycles
 E2 =    -0.9963104881D+00 EUMP2 =    -0.32256007088915D+03
 SCF Done:  E(RHF) =  -321.563003725     A.U. after   11 cycles
 E2 =    -0.9971133440D+00 EUMP2 =    -0.32256011706874D+03
 Optimization completed.
    -- Stationary point found.
 Normal termination of Gaussian 09 at Fri Sep  3 00:22:14 2021.

 ------------------------------------------------------------------
 #P Geom=AllCheck Guess=TCheck SCRF=Check QCISD(T,E4T,FrzG3)/GTBas1
 ------------------------------------------------------------------

 Structure from the checkpoint file:  "PY_G3.chk"
 -----
 PY_G3
 -----
 Charge =  0 Multiplicity = 1

 SCF Done:  E(RHF) =  -321.563003725     A.U. after    1 cycles
 E2 =    -0.9657745083D+00 EUMP2 =    -0.32252877823306D+03
 Normal termination of Gaussian 09 at Fri Sep  3 00:24:27 2021.

 ---------------------------------------------------------
 #P Geom=AllCheck Guess=TCheck SCRF=Check MP4=FrzG3/GTBas2
 ---------------------------------------------------------

 Structure from the checkpoint file:  "PY_G3.chk"
 -----
 PY_G3
 -----
 Charge =  0 Multiplicity = 1

 SCF Done:  E(RHF) =  -321.574304118     A.U. after   14 cycles
 E2 =    -0.9775907365D+00 EUMP2 =    -0.32255189485414D+03
 Normal termination of Gaussian 09 at Fri Sep  3 00:26:27 2021.

 ---------------------------------------------------------
 #P Geom=AllCheck Guess=TCheck SCRF=Check MP4=FrzG3/GTBas3
 ---------------------------------------------------------

 Structure from the checkpoint file:  "PY_G3.chk"
 -----
 PY_G3
 -----
 Charge =  0 Multiplicity = 1

 SCF Done:  E(RHF) =  -321.595491981     A.U. after   13 cycles
 E2 =    -0.1157427008D+01 EUMP2 =    -0.32275291898857D+03
 Normal termination of Gaussian 09 at Fri Sep  3 00:39:16 2021.

                         Standard orientation:
 ---------------------------------------------------------------------
 Center     Atomic      Atomic             Coordinates (Angstroms)
 Number     Number       Type             X           Y           Z
 ---------------------------------------------------------------------
      1          8           0       -0.129024    2.294607    0.000000
      2          7           0       -1.131527    0.235340    0.000000
      3          6           0       -0.000000    1.066727    0.000000
      4          6           0        1.240667    0.319282   -0.000000
      5          6           0       -1.125681   -1.129901    0.000000
      6          6           0        1.262650   -1.047905   -0.000000
      7          6           0        0.059148   -1.805467   -0.000000
      8          1           0       -2.011912    0.743833    0.000000
      9          1           0        2.153846    0.904999   -0.000000
     10          1           0       -2.096876   -1.614093    0.000000
     11          1           0        2.218606   -1.566681   -0.000000
     12          1           0        0.068504   -2.888717   -0.000000
 ---------------------------------------------------------------------

 SCF Done:  E(RHF) =  -321.672164406     A.U. after   13 cycles
 E2 =    -0.1512659107D+01 EUMP2 =    -0.32318482351339D+03

 The electronic state is 1-A'.
 Alpha  occ. eigenvalues --  -20.51078 -15.62692 -11.35566 -11.31568 -11.27472
 Alpha  occ. eigenvalues --  -11.24438 -11.24114  -1.37333  -1.27597  -1.11027
 Alpha  occ. eigenvalues --   -1.03363  -0.88990  -0.86397  -0.75760  -0.69730
 Alpha  occ. eigenvalues --   -0.67981  -0.64069  -0.61371  -0.60698  -0.56090
 Alpha  occ. eigenvalues --   -0.54083  -0.48652  -0.42728  -0.42697  -0.31690
 Alpha virt. eigenvalues --    0.02987   0.04153   0.05236   0.07020   0.07119
 Alpha virt. eigenvalues --    0.07828   0.10507   0.11490   0.12748   0.13021
 Alpha virt. eigenvalues --    0.14030   0.14559   0.15042   0.16071   0.17112

 Mulliken charges:
               1
     1  O   -0.546154
     2  N   -0.321576
     3  C    0.212160
     4  C   -0.044077
     5  C    0.087391
     6  C    0.195600
     7  C   -0.543756
     8  H    0.257489
     9  H    0.177362
    10  H    0.176095
    11  H    0.201531
    12  H    0.147934
 Sum of Mulliken charges =  -0.00000

 Dipole moment (field-independent basis, Debye):
    X=             -1.1577    Y=             -4.8691    Z=             -0.0000  Tot=              5.0048
 Quadrupole moment (field-independent basis, Debye-Ang):
   XX=            -30.8972   YY=            -49.1920   ZZ=            -43.9841
   XY=              0.0731   XZ=              0.0000   YZ=             -0.0000

 Normal termination of Gaussian 09 at Fri Sep  3 00:41:51 2021.
