 Gaussian 09, Revision E.01,
 Gaussian 09:  EM64L-G09RevE.01 30-Nov-2015

 ---------------------
 #p opt freq M062X/gen
 ---------------------

 -------------------------
 PY_H2O_M062X_PC2_OPT_FREQ
 -------------------------
 Symbolic Z-matrix:
 Charge =  0 Multiplicity = 1

 SCF Done:  E(RM062X) =  -399.972203539     A.U. after   15 cycles
 SCF Done:  E(RM062X) =  -399.972404846     A.U. after   11 cycles
 SCF Done:  E(RM062X) =  -399.972424836     A.U. after    9 cycles
 SCF Done:  E(RM062X) =  -399.972436791     A.U. after    9 cycles
 SCF Done:  E(RM062X) =  -399.972444507     A.U. after    8 cycles
 SCF Done:  E(RM062X) =  -399.972450884     A.U. after    9 cycles
 SCF Done:  E(RM062X) =  -399.972455379     A.U. after    9 cycles
 SCF Done:  E(RM062X) =  -399.972462218     A.U. after   10 cycles
 SCF Done:  E(RM062X) =  -399.972468963     A.U. after   10 cycles
 SCF Done:  E(RM062X) =  -399.972474498     A.U. after   11 cycles
 SCF Done:  E(RM062X) =  -399.972485021     A.U. after    8 cycles
 SCF Done:  E(RM062X) =  -399.972487483     A.U. after    8 cycles
 SCF Done:  E(RM062X) =  -399.972491935     A.U. after   10 cycles
 SCF Done:  E(RM062X) =  -399.972494977     A.U. after    8 cycles
 SCF Done:  E(RM062X) =  -399.972495555     A.U. after    7 cycles
 SCF Done:  E(RM062X) =  -399.972496097     A.U. after    7 cycles
 SCF Done:  E(RM062X) =  -399.972496230     A.U. after    6 cycles
 SCF Done:  E(RM062X) =  -399.972496284     A.U. after    7 cycles
 SCF Done:  E(RM062X) =  -399.972496295     A.U. after    6 cycles
 Optimization completed.
    -- Stationary point found.
 Normal termination of Gaussian 09 at Fri Aug 27 01:26:41 2021.

 ------------------------------------------------------------------
 #P Geom=AllCheck Guess=TCheck SCRF=Check GenChk RM062X/ChkBas Freq
 ------------------------------------------------------------------

 Structure from the checkpoint file:  "PY_H2O_M062X_PC2_OPT_FREQ.chk"
 -------------------------
 PY_H2O_M062X_PC2_OPT_FREQ
 -------------------------
 Charge =  0 Multiplicity = 1

                         Standard orientation:
 ---------------------------------------------------------------------
 Center     Atomic      Atomic             Coordinates (Angstroms)
 Number     Number       Type             X           Y           Z
 ---------------------------------------------------------------------
      1          8           0        1.256045    1.388680    0.017295
      2          7           0        0.255117   -0.653521    0.023780
      3          6           0        0.214911    0.733493    0.012615
      4          6           0       -1.117747    1.284834   -0.005318
      5          6           0       -0.836658   -1.456093    0.013791
      6          6           0       -2.209380    0.480893   -0.014488
      7          6           0       -2.085753   -0.933224   -0.005341
      8          1           0        2.701253    0.279591   -0.037508
      9          1           0       -1.191525    2.361473   -0.013238
     10          1           0       -0.638101   -2.517617    0.021149
     11          1           0       -3.197097    0.923411   -0.030128
     12          1           0       -2.948905   -1.578039   -0.013604
     13          8           0        3.068312   -0.624219   -0.081524
     14          1           0        3.910148   -0.613390    0.372849
     15          1           0        1.191312   -1.055884    0.040297
 ---------------------------------------------------------------------

 SCF Done:  E(RM062X) =  -399.972496295     A.U. after    1 cycles

 The electronic state is 1-A.
 Alpha  occ. eigenvalues --  -19.61133 -19.59090 -14.80591 -10.65027 -10.60812
 Alpha  occ. eigenvalues --  -10.57196 -10.55289 -10.55098  -1.16979  -1.12073
 Alpha  occ. eigenvalues --   -1.07740  -0.93002  -0.86451  -0.74922  -0.73056
 Alpha  occ. eigenvalues --   -0.64759  -0.61127  -0.58655  -0.56192  -0.54209
 Alpha  occ. eigenvalues --   -0.52947  -0.51561  -0.46845  -0.46270  -0.44284
 Alpha  occ. eigenvalues --   -0.42635  -0.39447  -0.37656  -0.34383  -0.28340
 Alpha virt. eigenvalues --   -0.01807   0.03342   0.03519   0.04961   0.05848
 Alpha virt. eigenvalues --    0.07220   0.09125   0.12429   0.14442   0.16185
 Alpha virt. eigenvalues --    0.16602   0.18138   0.18750   0.20360   0.21500

 Mulliken charges:
               1
     1  O   -0.588258
     2  N   -0.333223
     3  C    0.585234
     4  C   -0.139237
     5  C    0.256630
     6  C    0.095874
     7  C   -0.153590
     8  H    0.242235
     9  H    0.032295
    10  H    0.044566
    11  H    0.034243
    12  H    0.018294
    13  O   -0.462007
    14  H    0.206880
    15  H    0.160063
 Sum of Mulliken charges =  -0.00000

 Dipole moment (field-independent basis, Debye):
    X=             -2.1494    Y=             -2.1711    Z=              0.8490  Tot=              3.1709
 Quadrupole moment (field-independent basis, Debye-Ang):
   XX=            -39.2536   YY=            -45.7818   ZZ=            -50.4399
   XY=             -2.2024   XZ=              3.7148   YZ=             -0.7722

  Exact polarizability:  98.123   6.076  82.713   1.056  -0.271  43.565
 Approx polarizability: 116.569  10.242 106.031   1.431  -0.240  56.373

                      1                      2                      3
                      A                      A                      A
 Frequencies --     61.1614               156.7909               186.2913
 Red. masses --      5.3520                 5.5433                 5.2629
 Frc consts  --      0.0118                 0.0803                 0.1076
 IR Inten    --      0.4474                29.6162                 1.9868

                      4                      5                      6
                      A                      A                      A
 Frequencies --    197.0392               260.5870               394.1680
 Red. masses --      5.4520                 1.0897                 3.3322
 Frc consts  --      0.1247                 0.0436                 0.3050
 IR Inten    --      5.9087               139.5172                 1.3411

                      7                      8                      9
                      A                      A                      A
 Frequencies --    458.4199               492.8349               515.5251
 Red. masses --      1.1410                 5.7597                 2.3058
 Frc consts  --      0.1413                 0.8242                 0.3611
 IR Inten    --    161.2455                13.2471                27.2769

                     10                     11                     12
                      A                      A                      A
 Frequencies --    559.5909               627.6757               709.0885
 Red. masses --      7.8752                 6.7107                 1.0660
 Frc consts  --      1.4530                 1.5577                 0.3158
 IR Inten    --     10.2730                 0.0522               164.2751

                     13                     14                     15
                      A                      A                      A
 Frequencies --    746.4199               801.0832               851.3387
 Red. masses --      2.1295                 1.6153                 4.0111
 Frc consts  --      0.6990                 0.6107                 1.7128
 IR Inten    --     25.3466                51.8890                 9.7700

                     16                     17                     18
                      A                      A                      A
 Frequencies --    855.5076               882.9413               995.2289
 Red. masses --      1.2495                 1.7300                 1.2932
 Frc consts  --      0.5388                 0.7946                 0.7547
 IR Inten    --     44.7732                51.2445                 1.0368

                     19                     20                     21
                      A                      A                      A
 Frequencies --   1003.7666              1018.6223              1037.1869
 Red. masses --      5.4291                 1.2974                 2.3277
 Frc consts  --      3.2229                 0.7931                 1.4754
 IR Inten    --     25.8366                 0.2899                 4.2277

                     22                     23                     24
                      A                      A                      A
 Frequencies --   1139.5761              1174.8355              1251.6625
 Red. masses --      1.5427                 1.1036                 1.5823
 Frc consts  --      1.1804                 0.8974                 1.4606
 IR Inten    --      8.4512                15.0091                 3.5500

                     25                     26                     27
                      A                      A                      A
 Frequencies --   1280.3857              1404.6342              1482.3107
 Red. masses --      2.2771                 1.5768                 1.9748
 Frc consts  --      2.1995                 1.8330                 2.5566
 IR Inten    --     23.0729                 4.5137                14.3823

                     28                     29                     30
                      A                      A                      A
 Frequencies --   1519.1469              1616.2249              1624.0632
 Red. masses --      2.5016                 2.5864                 1.4683
 Frc consts  --      3.4014                 3.9807                 2.2817
 IR Inten    --     11.1908               140.4388               261.2590

                     31                     32                     33
                      A                      A                      A
 Frequencies --   1698.3287              1765.9088              3179.8057
 Red. masses --      3.8491                 4.6671                 1.0906
 Frc consts  --      6.5411                 8.5751                 6.4971
 IR Inten    --     53.0109               650.8624                 7.2580

                     34                     35                     36
                      A                      A                      A
 Frequencies --   3223.3531              3230.9308              3260.8430
 Red. masses --      1.0924                 1.0945                 1.0966
 Frc consts  --      6.6871                 6.7319                 6.8701
 IR Inten    --      0.7712                 0.1440                 0.9869

                     37                     38                     39
                      A                      A                      A
 Frequencies --   3423.4641              3551.9542              3967.8131
 Red. masses --      1.0814                 1.0634                 1.0686
 Frc consts  --      7.4674                 7.9047                 9.9118
 IR Inten    --    247.7739               731.4111               101.1890

 - Thermochemistry -
 -------------------
 Temperature   298.150 Kelvin.  Pressure   1.00000 Atm.
 Atom     1 has atomic number  8 and mass  15.99491

 Molecular mass:   113.04768 amu.
 Principal axes and moments of inertia in atomic units:
                           1         2         3
     Eigenvalues --   446.912771274.337671719.37546
           X            0.99994  -0.01028   0.00431
           Y            0.01029   0.99994  -0.00310
           Z           -0.00428   0.00314   0.99999
 This molecule is an asymmetric top.
 Rotational symmetry number  1.
 Warning -- assumption of classical behavior for rotation
           may cause significant error
 Rotational temperatures (Kelvin)      0.19380     0.06797     0.05038
 Rotational constants (GHZ):           4.03824     1.41622     1.04965
 Zero-point vibrational energy     314656.8 (Joules/Mol)
                                   75.20478 (Kcal/Mol)
 Warning -- explicit consideration of  10 degrees of freedom as
           vibrations may cause significant error
 Vibrational temperatures:     88.00   225.59   268.03   283.50   374.93
          (Kelvin)            567.12   659.56   709.08   741.72   805.13
                              903.08  1020.22  1073.93  1152.58  1224.89
                             1230.88  1270.35  1431.91  1444.19  1465.57
                             1492.28  1639.59  1690.32  1800.86  1842.19
                             2020.95  2132.71  2185.71  2325.38  2336.66
                             2443.51  2540.75  4575.03  4637.68  4648.58
                             4691.62  4925.60  5110.46  5708.79

 Zero-point correction=                           0.119846 (Hartree/Particle)
 Thermal correction to Energy=                    0.127786
 Thermal correction to Enthalpy=                  0.128730
 Thermal correction to Gibbs Free Energy=         0.087227
 Sum of electronic and zero-point Energies=           -399.852650
 Sum of electronic and thermal Energies=              -399.844710
 Sum of electronic and thermal Enthalpies=            -399.843766
 Sum of electronic and thermal Free Energies=         -399.885269

                     E (Thermal)             CV                S
                      KCal/Mol        Cal/Mol-Kelvin    Cal/Mol-Kelvin
 Total                   80.187             29.207             87.351
 Electronic               0.000              0.000              0.000
 Translational            0.889              2.981             40.084
 Rotational               0.889              2.981             28.373
 Vibrational             78.410             23.245             18.895
 Vibration     1          0.597              1.973              4.419
 Vibration     2          0.620              1.895              2.588
 Vibration     3          0.632              1.859              2.264
 Vibration     4          0.636              1.844              2.161
 Vibration     5          0.669              1.745              1.658
 Vibration     6          0.761              1.483              0.984
 Vibration     7          0.816              1.342              0.771
 Vibration     8          0.849              1.266              0.676
 Vibration     9          0.871              1.216              0.620
 Vibration    10          0.915              1.119              0.525

 Normal termination of Gaussian 09 at Fri Aug 27 01:27:59 2021.
