 Gaussian 09, Revision E.01,
 Gaussian 09:  EM64L-G09RevE.01 30-Nov-2015

 ----------------------------------------------------------------------
 #p opt=(calcfc,qst3,maxcycle=300,cartesian) freq M062X/gen int=acc2e=1
 2 scf=(novaracc,noincfock)
 ----------------------------------------------------------------------

 -------------------------
 HY_H2O_M062X_PC2_OPT_FREQ
 -------------------------
 Symbolic Z-matrix:
 Charge =  0 Multiplicity = 1

 -------------------------
 PY_H2O_M062X_PC2_OPT_FREQ
 -------------------------
 Symbolic Z-matrix:
 Charge =  0 Multiplicity = 1

 -------------
 TST_H2O_M062X
 -------------
 Symbolic Z-matrix:
 Charge =  0 Multiplicity = 1

 SCF Done:  E(RM062X) =  -399.940387016     A.U. after   13 cycles
 SCF Done:  E(RM062X) =  -399.936869200     A.U. after   12 cycles
 SCF Done:  E(RM062X) =  -399.937608117     A.U. after   12 cycles
 SCF Done:  E(RM062X) =  -399.940200329     A.U. after   12 cycles
 SCF Done:  E(RM062X) =  -399.939791498     A.U. after   12 cycles
 SCF Done:  E(RM062X) =  -399.948919849     A.U. after   12 cycles
 SCF Done:  E(RM062X) =  -399.946718393     A.U. after   11 cycles
 SCF Done:  E(RM062X) =  -399.945456495     A.U. after   11 cycles
 SCF Done:  E(RM062X) =  -399.946890823     A.U. after   12 cycles
 SCF Done:  E(RM062X) =  -399.948361205     A.U. after   12 cycles
 SCF Done:  E(RM062X) =  -399.950666579     A.U. after   10 cycles
 SCF Done:  E(RM062X) =  -399.950715905     A.U. after   10 cycles
 SCF Done:  E(RM062X) =  -399.950750532     A.U. after    9 cycles
 SCF Done:  E(RM062X) =  -399.950778374     A.U. after   10 cycles
 SCF Done:  E(RM062X) =  -399.950803611     A.U. after    9 cycles
 SCF Done:  E(RM062X) =  -399.950814599     A.U. after    8 cycles
 SCF Done:  E(RM062X) =  -399.950819857     A.U. after    9 cycles
 SCF Done:  E(RM062X) =  -399.950820356     A.U. after    8 cycles
 SCF Done:  E(RM062X) =  -399.950820486     A.U. after    7 cycles
 Optimization completed.
    -- Stationary point found.
 Normal termination of Gaussian 09 at Sat Aug 28 15:19:52 2021.

 ------------------------------------------------------------------
 #P Geom=AllCheck Guess=TCheck SCRF=Check GenChk RM062X/ChkBas Freq
 ------------------------------------------------------------------

 Structure from the checkpoint file:  "TST_H2O_M062X.chk"
 -------------------------
 HY_H2O_M062X_PC2_OPT_FREQ
 -------------------------
 Charge =  0 Multiplicity = 1

                         Standard orientation:
 ---------------------------------------------------------------------
 Center     Atomic      Atomic             Coordinates (Angstroms)
 Number     Number       Type             X           Y           Z
 ---------------------------------------------------------------------
      1          8           0        1.377271    1.316030   -0.008377
      2          7           0        0.312398   -0.684077   -0.006910
      3          6           0        0.266353    0.671700   -0.001804
      4          6           0       -0.997976    1.306563    0.009467
      5          6           0       -0.802999   -1.428304   -0.006162
      6          6           0       -2.129805    0.539259    0.011417
      7          6           0       -2.048436   -0.863148    0.003018
      8          1           0        2.241684    0.471821   -0.026607
      9          1           0       -1.025360    2.385150    0.013596
     10          1           0       -0.656140   -2.499628   -0.015040
     11          1           0       -3.099897    1.018864    0.018604
     12          1           0       -2.931720   -1.481577    0.002360
     13          8           0        2.721146   -0.643570   -0.081383
     14          1           0        3.257222   -0.853816    0.684871
     15          1           0        1.517270   -0.988368   -0.006953
 ---------------------------------------------------------------------

 SCF Done:  E(RM062X) =  -399.950820486     A.U. after    1 cycles

 The electronic state is 1-A.
 Alpha  occ. eigenvalues --  -19.61148 -19.60438 -14.78188 -10.65032 -10.60240
 Alpha  occ. eigenvalues --  -10.57373 -10.55351 -10.55335  -1.18602  -1.10156
 Alpha  occ. eigenvalues --   -1.06779  -0.92552  -0.86532  -0.75148  -0.72253
 Alpha  occ. eigenvalues --   -0.64276  -0.62909  -0.57956  -0.55706  -0.53741
 Alpha  occ. eigenvalues --   -0.53031  -0.51193  -0.47716  -0.46052  -0.43398
 Alpha  occ. eigenvalues --   -0.42674  -0.37770  -0.37120  -0.35028  -0.29180
 Alpha virt. eigenvalues --   -0.01620   0.02380   0.03650   0.04947   0.05925
 Alpha virt. eigenvalues --    0.07536   0.09010   0.13447   0.14283   0.16331
 Alpha virt. eigenvalues --    0.17113   0.18246   0.18848   0.20169   0.21727

 Mulliken charges:
               1
     1  O   -0.559708
     2  N   -0.514286
     3  C    0.608114
     4  C   -0.133467
     5  C    0.259768
     6  C    0.109156
     7  C   -0.160508
     8  H    0.307129
     9  H    0.032159
    10  H    0.039556
    11  H    0.034473
    12  H    0.017937
    13  O   -0.564655
    14  H    0.212903
    15  H    0.311430
 Sum of Mulliken charges =  -0.00000

 Dipole moment (field-independent basis, Debye):
    X=             -2.7222    Y=             -1.7695    Z=              1.3739  Tot=              3.5254
 Quadrupole moment (field-independent basis, Debye-Ang):
   XX=            -44.2306   YY=            -45.1720   ZZ=            -49.5278
   XY=             -2.8798   XZ=              4.9703   YZ=             -1.3322

  Exact polarizability: 101.784   2.450  82.776   1.025  -0.258  43.639
 Approx polarizability: 120.097   6.504 108.652   0.937  -0.328  57.398

 ******    1 imaginary frequencies (negative Signs) ******

                      1                      2                      3
                      A                      A                      A
 Frequencies --  -1549.1808               107.9070               214.5027
 Red. masses --      1.0603                 4.9770                 5.1580
 Frc consts  --      1.4993                 0.0341                 0.1398
 IR Inten    --    203.7750                 3.6415                 1.9550

                      4                      5                      6
                      A                      A                      A
 Frequencies --    340.2021               408.4350               440.8543
 Red. masses --      5.2840                 2.6358                 1.8239
 Frc consts  --      0.3603                 0.2591                 0.2089
 IR Inten    --      5.4237                 7.9267                14.6016

                      7                      8                      9
                      A                      A                      A
 Frequencies --    492.7884               540.9278               582.4822
 Red. masses --      2.5785                 2.4577                 4.7736
 Frc consts  --      0.3689                 0.4237                 0.9542
 IR Inten    --      2.8817                14.5660                25.5211

                     10                     11                     12
                      A                      A                      A
 Frequencies --    611.0708               657.0310               732.3571
 Red. masses --      1.3053                 5.3763                 8.3147
 Frc consts  --      0.2872                 1.3674                 2.6275
 IR Inten    --     56.1279                67.0215                63.5427

                     13                     14                     15
                      A                      A                      A
 Frequencies --    767.1694               814.9870               880.0148
 Red. masses --      1.9949                 1.9224                 5.4854
 Frc consts  --      0.6918                 0.7523                 2.5029
 IR Inten    --     18.4239                54.6344                30.5550

                     16                     17                     18
                      A                      A                      A
 Frequencies --    892.7229               993.7832               998.5567
 Red. masses --      1.5002                 3.0856                 1.3704
 Frc consts  --      0.7044                 1.7955                 0.8051
 IR Inten    --      3.1201              1143.8738                 3.4832

                     19                     20                     21
                      A                      A                      A
 Frequencies --   1021.7805              1062.3692              1151.1135
 Red. masses --      1.3056                 2.1897                 1.4063
 Frc consts  --      0.8031                 1.4561                 1.0979
 IR Inten    --      0.3270                 4.3833               374.3108

                     22                     23                     24
                      A                      A                      A
 Frequencies --   1176.2706              1225.0362              1283.1651
 Red. masses --      1.0934                 1.2280                 3.4227
 Frc consts  --      0.8913                 1.0857                 3.3204
 IR Inten    --    241.3453              4005.6651                13.4204

                     25                     26                     27
                      A                      A                      A
 Frequencies --   1333.6129              1370.9170              1416.0282
 Red. masses --      1.6243                 1.1012                 2.1680
 Frc consts  --      1.7021                 1.2194                 2.5612
 IR Inten    --    346.7544               345.2404                12.6806

                     28                     29                     30
                      A                      A                      A
 Frequencies --   1441.3233              1510.8594              1579.4846
 Red. masses --      1.1048                 2.5667                 3.1492
 Frc consts  --      1.3522                 3.4520                 4.6289
 IR Inten    --    103.1481                39.5693               232.7578

                     31                     32                     33
                      A                      A                      A
 Frequencies --   1607.6493              1715.4781              1719.1107
 Red. masses --      4.6202                 1.5757                 3.4703
 Frc consts  --      7.0355                 2.7321                 6.0426
 IR Inten    --     36.1367               236.0081               384.1888

                     34                     35                     36
                      A                      A                      A
 Frequencies --   1961.3079              3181.6169              3203.0018
 Red. masses --      1.0531                 1.0907                 1.0923
 Frc consts  --      2.3867                 6.5048                 6.6024
 IR Inten    --      9.3325                 5.3728                 4.2499

                     37                     38                     39
                      A                      A                      A
 Frequencies --   3228.4335              3256.6917              3924.4344
 Red. masses --      1.0947                 1.0957                 1.0660
 Frc consts  --      6.7222                 6.8467                 9.6731
 IR Inten    --      0.2294                 1.5769                60.7262

 - Thermochemistry -
 -------------------
 Temperature   298.150 Kelvin.  Pressure   1.00000 Atm.
 Atom     1 has atomic number  8 and mass  15.99491

 Molecular mass:   113.04768 amu.
 Principal axes and moments of inertia in atomic units:
                           1         2         3
     Eigenvalues --   433.585281121.325651550.87376
           X            0.99987  -0.01454   0.00666
           Y            0.01457   0.99988  -0.00441
           Z           -0.00659   0.00451   0.99997
 This molecule is an asymmetric top.
 Rotational symmetry number  1.
 Warning -- assumption of classical behavior for rotation
           may cause significant error
 Rotational temperatures (Kelvin)      0.19976     0.07724     0.05585
 Rotational constants (GHZ):           4.16237     1.60947     1.16369
    1 imaginary frequencies ignored.
 Zero-point vibrational energy     298142.2 (Joules/Mol)
                                   71.25769 (Kcal/Mol)
 Warning -- explicit consideration of   9 degrees of freedom as
           vibrations may cause significant error
 Vibrational temperatures:    155.25   308.62   489.47   587.65   634.29
          (Kelvin)            709.01   778.27   838.06   879.19   945.32
                             1053.70  1103.78  1172.58  1266.14  1284.43
                             1429.83  1436.70  1470.11  1528.51  1656.19
                             1692.39  1762.55  1846.19  1918.77  1972.44
                             2037.35  2073.74  2173.79  2272.52  2313.05
                             2468.19  2473.41  2821.88  4577.63  4608.40
                             4644.99  4685.65  5646.38

 Zero-point correction=                           0.113556 (Hartree/Particle)
 Thermal correction to Energy=                    0.120100
 Thermal correction to Enthalpy=                  0.121044
 Thermal correction to Gibbs Free Energy=         0.082744
 Sum of electronic and zero-point Energies=           -399.837264
 Sum of electronic and thermal Energies=              -399.830721
 Sum of electronic and thermal Enthalpies=            -399.829777
 Sum of electronic and thermal Free Energies=         -399.868077

                     E (Thermal)             CV                S
                      KCal/Mol        Cal/Mol-Kelvin    Cal/Mol-Kelvin
 Total                   75.364             25.648             80.609
 Electronic               0.000              0.000              0.000
 Translational            0.889              2.981             40.084
 Rotational               0.889              2.981             28.113
 Vibrational             73.586             19.686             12.412
 Vibration     1          0.606              1.943              3.306
 Vibration     2          0.644              1.819              2.005
 Vibration     3          0.720              1.595              1.211
 Vibration     4          0.773              1.452              0.932
 Vibration     5          0.801              1.381              0.824
 Vibration     6          0.848              1.266              0.676
 Vibration     7          0.896              1.160              0.563
 Vibration     8          0.939              1.069              0.481
 Vibration     9          0.970              1.008              0.431

 Optimization completed.
    -- Stationary point found.
 Normal termination of Gaussian 09 at Sat Aug 28 15:21:24 2021.
