 Gaussian 09, Revision E.01,
 Gaussian 09:  EM64L-G09RevE.01 30-Nov-2015

 ----------------------------------------------------
 #p opt=(calcfc,qst3,MaxCycle=200) freq BHandHLYP/gen
 ----------------------------------------------------

 -------------------------
 HY_BHandHLYP_PC2_OPT_FREQ
 -------------------------
 Symbolic Z-matrix:
 Charge =  0 Multiplicity = 1

 -------------------------
 PY_BHandHLYP_PC2_OPT_FREQ
 -------------------------
 Symbolic Z-matrix:
 Charge =  0 Multiplicity = 1

 -----------------
 TST_GAS_BHandHLYP
 -----------------
 Symbolic Z-matrix:
 Charge =  0 Multiplicity = 1

 SCF Done:  E(RBHandHLYP) =  -323.366629756     A.U. after   14 cycles
 SCF Done:  E(RBHandHLYP) =  -323.380380591     A.U. after   13 cycles
 SCF Done:  E(RBHandHLYP) =  -323.390197736     A.U. after   13 cycles
 SCF Done:  E(RBHandHLYP) =  -323.393013169     A.U. after   12 cycles
 SCF Done:  E(RBHandHLYP) =  -323.393160456     A.U. after   11 cycles
 SCF Done:  E(RBHandHLYP) =  -323.393163674     A.U. after    9 cycles
 SCF Done:  E(RBHandHLYP) =  -323.393164753     A.U. after    7 cycles
 Optimization completed.
    -- Stationary point found.
 Normal termination of Gaussian 09 at Sat Aug 28 00:52:47 2021.

 ----------------------------------------------------------------------
 #P Geom=AllCheck Guess=TCheck SCRF=Check GenChk RBHandHLYP/ChkBas Freq
 ----------------------------------------------------------------------

 Structure from the checkpoint file:  "TST_GAS_BHandHLYP.chk"
 -------------------------
 HY_BHandHLYP_PC2_OPT_FREQ
 -------------------------
 Charge =  0 Multiplicity = 1

                         Standard orientation:
 ---------------------------------------------------------------------
 Center     Atomic      Atomic             Coordinates (Angstroms)
 Number     Number       Type             X           Y           Z
 ---------------------------------------------------------------------
      1          8           0       -0.427881    2.166527   -0.000000
      2          7           0       -1.099353    0.196339    0.000000
      3          6           0       -0.000000    0.967560   -0.000000
      4          6           0        1.269604    0.384696   -0.000000
      5          6           0       -1.060662   -1.126894    0.000000
      6          6           0        1.311421   -0.983872   -0.000000
      7          6           0        0.150843   -1.763537    0.000000
      8          1           0       -1.534365    1.397185    0.000000
      9          1           0        2.152441    0.990389   -0.000000
     10          1           0       -1.995872   -1.652698    0.000000
     11          1           0        2.266490   -1.476166   -0.000000
     12          1           0        0.202589   -2.833016    0.000000
 ---------------------------------------------------------------------

 SCF Done:  E(RBHandHLYP) =  -323.393164753     A.U. after    1 cycles

 The electronic state is 1-A'.
 Alpha  occ. eigenvalues --  -19.65661 -14.83183 -10.68975 -10.65171 -10.62217
 Alpha  occ. eigenvalues --  -10.59799 -10.59554  -1.21245  -1.07703  -0.94343
 Alpha  occ. eigenvalues --   -0.87984  -0.77243  -0.72616  -0.63951  -0.59874
 Alpha  occ. eigenvalues --   -0.56338  -0.53190  -0.52718  -0.50758  -0.47094
 Alpha  occ. eigenvalues --   -0.41883  -0.41651  -0.36817  -0.36260  -0.27808
 Alpha virt. eigenvalues --   -0.01124   0.03804   0.03999   0.05831   0.07177
 Alpha virt. eigenvalues --    0.09574   0.09865   0.16161   0.17219   0.17247
 Alpha virt. eigenvalues --    0.18561   0.18804   0.21144   0.21829   0.22835

 Mulliken charges:
               1
     1  O   -0.591432
     2  N   -0.523906
     3  C    0.605765
     4  C   -0.138821
     5  C    0.243389
     6  C    0.102116
     7  C   -0.164810
     8  H    0.320179
     9  H    0.031182
    10  H    0.048182
    11  H    0.040900
    12  H    0.027256
 Sum of Mulliken charges =  -0.00000

 Dipole moment (field-independent basis, Debye):
    X=              0.3589    Y=             -3.6643    Z=              0.0000  Tot=              3.6818
 Quadrupole moment (field-independent basis, Debye-Ang):
   XX=            -34.2799   YY=            -45.0669   ZZ=            -43.1515
   XY=              1.1921   XZ=             -0.0000   YZ=              0.0000

  Exact polarizability:  71.753  -1.283  84.605  -0.000   0.000  37.098
 Approx polarizability:  93.682  -0.570 111.544  -0.000  -0.000  49.378

 ******    1 imaginary frequencies (negative Signs) ******

                      1                      2                      3
                     A'                     A"                     A"
 Frequencies --  -2075.3556               203.1507               432.2652
 Red. masses --      1.0698                 6.7398                 3.3555
 Frc consts  --      2.7147                 0.1639                 0.3694
 IR Inten    --    668.4326                 0.0353                 2.2084

                      4                      5                      6
                     A"                     A'                     A'
 Frequencies --    513.6057               517.8237               633.1474
 Red. masses --      2.4366                 7.0717                 7.1147
 Frc consts  --      0.3787                 1.1172                 1.6804
 IR Inten    --     19.8908                 4.8729                 3.1448

                      7                      8                      9
                     A'                     A"                     A"
 Frequencies --    699.3757               776.3570               808.1964
 Red. masses --      6.9816                 2.6786                 1.4291
 Frc consts  --      2.0120                 0.9512                 0.5500
 IR Inten    --      0.1487                 6.1866                61.6171

                     10                     11                     12
                     A"                     A'                     A"
 Frequencies --    900.6704               934.2259              1030.4376
 Red. masses --      1.3709                 5.8285                 1.3707
 Frc consts  --      0.6552                 2.9972                 0.8575
 IR Inten    --      2.4784                 8.1193                 1.2454

                     13                     14                     15
                     A'                     A"                     A'
 Frequencies --   1056.9785              1062.0293              1075.7991
 Red. masses --      5.9590                 1.3189                 2.0505
 Frc consts  --      3.9225                 0.8765                 1.3982
 IR Inten    --     18.6525                 0.4818                 4.4440

                     16                     17                     18
                     A"                     A'                     A'
 Frequencies --   1168.2240              1183.6509              1211.0005
 Red. masses --      1.2090                 1.4425                 1.1954
 Frc consts  --      0.9721                 1.1907                 1.0329
 IR Inten    --     76.7143                 6.2552                27.7666

                     19                     20                     21
                     A'                     A'                     A'
 Frequencies --   1310.8538              1373.3622              1465.8021
 Red. masses --      3.4475                 1.7262                 2.4458
 Frc consts  --      3.4903                 1.9183                 3.0961
 IR Inten    --      9.1557                34.1194                25.5237

                     22                     23                     24
                     A'                     A'                     A'
 Frequencies --   1550.7169              1599.2703              1665.0278
 Red. masses --      2.3998                 4.3772                 5.4549
 Frc consts  --      3.4001                 6.5961                 8.9101
 IR Inten    --      3.1468               411.0369                47.5574

                     25                     26                     27
                     A'                     A'                     A'
 Frequencies --   1736.0920              2220.9136              3273.2872
 Red. masses --      6.1973                 1.0686                 1.0900
 Frc consts  --     11.0052                 3.1054                 6.8807
 IR Inten    --    488.0328                85.2010                 6.8374

                     28                     29                     30
                     A'                     A'                     A'
 Frequencies --   3295.1890              3316.7711              3319.8959
 Red. masses --      1.0909                 1.0953                 1.0963
 Frc consts  --      6.9790                 7.0996                 7.1191
 IR Inten    --      2.5136                 4.0540                 0.1741

 - Thermochemistry -
 -------------------
 Temperature   298.150 Kelvin.  Pressure   1.00000 Atm.
 Atom     1 has atomic number  8 and mass  15.99491

 Molecular mass:    95.03711 amu.
 Principal axes and moments of inertia in atomic units:
                           1         2         3
     Eigenvalues --   308.50220 614.73800 923.24020
           X           -0.20143   0.97950   0.00000
           Y            0.97950   0.20143   0.00000
           Z           -0.00000  -0.00000   1.00000
 This molecule is an asymmetric top.
 Rotational symmetry number  1.
 Rotational temperatures (Kelvin)      0.28076     0.14090     0.09382
 Rotational constants (GHZ):           5.85001     2.93579     1.95479
    1 imaginary frequencies ignored.
 Zero-point vibrational energy     241251.6 (Joules/Mol)
                                   57.66052 (Kcal/Mol)
 Warning -- explicit consideration of   4 degrees of freedom as
           vibrations may cause significant error
 Vibrational temperatures:    292.29   621.93   738.96   745.03   910.96
          (Kelvin)           1006.24  1117.00  1162.81  1295.86  1344.14
                             1482.57  1520.75  1528.02  1547.83  1680.81
                             1703.01  1742.36  1886.02  1975.96  2108.96
                             2231.13  2300.99  2395.60  2497.85  3195.40
                             4709.52  4741.04  4772.09  4776.58

 Zero-point correction=                           0.091888 (Hartree/Particle)
 Thermal correction to Energy=                    0.096707
 Thermal correction to Enthalpy=                  0.097652
 Thermal correction to Gibbs Free Energy=         0.063284
 Sum of electronic and zero-point Energies=           -323.301277
 Sum of electronic and thermal Energies=              -323.296457
 Sum of electronic and thermal Enthalpies=            -323.295513
 Sum of electronic and thermal Free Energies=         -323.329881

                     E (Thermal)             CV                S
                      KCal/Mol        Cal/Mol-Kelvin    Cal/Mol-Kelvin
 Total                   60.685             18.159             72.333
 Electronic               0.000              0.000              0.000
 Translational            0.889              2.981             39.566
 Rotational               0.889              2.981             26.662
 Vibrational             58.907             12.197              6.105
 Vibration     1          0.639              1.835              2.104
 Vibration     2          0.793              1.400              0.851
 Vibration     3          0.869              1.220              0.625
 Vibration     4          0.873              1.211              0.615

 Optimization completed.
    -- Stationary point found.
 Normal termination of Gaussian 09 at Sat Aug 28 00:53:26 2021.
