 Gaussian 09, Revision E.01,
 Gaussian 09:  EM64L-G09RevE.01 30-Nov-2015

 --------------------
 #p opt freq SVWN/gen
 --------------------

 ------------------------
 HY_H2O_SVWN_PC2_OPT_FREQ
 ------------------------
 Symbolic Z-matrix:
 Charge =  0 Multiplicity = 1

 SCF Done:  E(RS-VWN) =  -398.029629591     A.U. after   14 cycles
 SCF Done:  E(RS-VWN) =  -398.031706085     A.U. after   12 cycles
 SCF Done:  E(RS-VWN) =  -398.033273325     A.U. after   11 cycles
 SCF Done:  E(RS-VWN) =  -398.034276548     A.U. after   12 cycles
 SCF Done:  E(RS-VWN) =  -398.034629469     A.U. after   11 cycles
 SCF Done:  E(RS-VWN) =  -398.034833856     A.U. after   11 cycles
 SCF Done:  E(RS-VWN) =  -398.034891356     A.U. after    8 cycles
 SCF Done:  E(RS-VWN) =  -398.034942314     A.U. after   10 cycles
 SCF Done:  E(RS-VWN) =  -398.034972240     A.U. after   11 cycles
 SCF Done:  E(RS-VWN) =  -398.034975760     A.U. after    8 cycles
 SCF Done:  E(RS-VWN) =  -398.034977246     A.U. after    8 cycles
 Optimization completed.
    -- Stationary point found.
 Normal termination of Gaussian 09 at Fri Aug 27 00:01:59 2021.

 -----------------------------------------------------------------
 #P Geom=AllCheck Guess=TCheck SCRF=Check GenChk RSVWN/ChkBas Freq
 -----------------------------------------------------------------

 Structure from the checkpoint file:  "HY_H2O_SVWN_PC2_OPT_FREQ.chk"
 ------------------------
 HY_H2O_SVWN_PC2_OPT_FREQ
 ------------------------
 Charge =  0 Multiplicity = 1

                         Standard orientation:
 ---------------------------------------------------------------------
 Center     Atomic      Atomic             Coordinates (Angstroms)
 Number     Number       Type             X           Y           Z
 ---------------------------------------------------------------------
      1          8           0        1.301142    1.369431   -0.006095
      2          7           0        0.310020   -0.687008   -0.007681
      3          6           0        0.204853    0.644684   -0.001044
      4          6           0       -1.041340    1.275436    0.009598
      5          6           0       -0.794161   -1.428686   -0.006867
      6          6           0       -2.170926    0.496891    0.011209
      7          6           0       -2.058331   -0.888311    0.002587
      8          1           0        2.110152    0.731623   -0.014550
      9          1           0       -1.078636    2.365174    0.014110
     10          1           0       -0.644499   -2.512426   -0.016466
     11          1           0       -3.155858    0.969111    0.018000
     12          1           0       -2.935947   -1.534303    0.001777
     13          8           0        2.875225   -0.610678   -0.084137
     14          1           0        3.363364   -0.897070    0.702464
     15          1           0        1.919767   -0.983147   -0.022607
 ---------------------------------------------------------------------

 SCF Done:  E(RS-VWN) =  -398.034977246     A.U. after    1 cycles

 The electronic state is 1-A.
 Alpha  occ. eigenvalues --  -18.62792 -18.61055 -13.88535  -9.89484  -9.84368
 Alpha  occ. eigenvalues --   -9.82225  -9.80890  -9.80683  -1.00382  -0.93119
 Alpha  occ. eigenvalues --   -0.88845  -0.76035  -0.71014  -0.61565  -0.59527
 Alpha  occ. eigenvalues --   -0.52931  -0.51803  -0.48416  -0.45928  -0.42912
 Alpha  occ. eigenvalues --   -0.42466  -0.39344  -0.38270  -0.36658  -0.34615
 Alpha  occ. eigenvalues --   -0.34016  -0.30093  -0.29478  -0.26779  -0.24100
 Alpha virt. eigenvalues --   -0.09632  -0.06658  -0.02207  -0.00874   0.01258
 Alpha virt. eigenvalues --    0.03111   0.04538   0.06148   0.06404   0.08573
 Alpha virt. eigenvalues --    0.09781   0.11007   0.12257   0.14272   0.14330

 Mulliken charges:
               1
     1  O   -0.361592
     2  N   -0.440283
     3  C    0.464876
     4  C   -0.187288
     5  C    0.097878
     6  C    0.011995
     7  C   -0.189924
     8  H    0.211390
     9  H    0.096991
    10  H    0.097999
    11  H    0.097649
    12  H    0.084635
    13  O   -0.444897
    14  H    0.232538
    15  H    0.228032
 Sum of Mulliken charges =  -0.00000

 Dipole moment (field-independent basis, Debye):
    X=             -1.8212    Y=             -1.3092    Z=              1.3887  Tot=              2.6380
 Quadrupole moment (field-independent basis, Debye-Ang):
   XX=            -42.6018   YY=            -45.0999   ZZ=            -49.5770
   XY=             -2.7374   XZ=              5.2011   YZ=             -1.4102

  Exact polarizability: 104.080   2.016  86.309   1.100  -0.191  44.993
 Approx polarizability: 190.714  12.208 176.056   1.296  -0.381  76.058

                      1                      2                      3
                      A                      A                      A
 Frequencies --     85.2507               202.5427               226.3607
 Red. masses --      5.1370                 4.6694                 4.9636
 Frc consts  --      0.0220                 0.1129                 0.1498
 IR Inten    --      4.5128                 2.0643                23.9662

                      4                      5                      6
                      A                      A                      A
 Frequencies --    275.5003               346.8322               405.9012
 Red. masses --      7.3379                 1.1084                 3.0627
 Frc consts  --      0.3281                 0.0786                 0.2973
 IR Inten    --     12.4534                90.0037                 4.9919

                      7                      8                      9
                      A                      A                      A
 Frequencies --    504.5465               509.8244               524.4518
 Red. masses --      1.6660                 2.5209                 2.2348
 Frc consts  --      0.2499                 0.3861                 0.3622
 IR Inten    --     86.1178                36.3599                19.3501

                     10                     11                     12
                      A                      A                      A
 Frequencies --    574.6312               637.8253               735.5302
 Red. masses --      6.8791                 6.5049                 1.6135
 Frc consts  --      1.3383                 1.5592                 0.5143
 IR Inten    --      1.0063                 2.0489                34.3163

                     13                     14                     15
                      A                      A                      A
 Frequencies --    779.2956               853.2400               866.5935
 Red. masses --      2.3968                 1.5180                 5.6809
 Frc consts  --      0.8576                 0.6511                 2.5136
 IR Inten    --     31.6774                 6.7422                13.5112

                     16                     17                     18
                      A                      A                      A
 Frequencies --    939.7035               968.7340               983.7535
 Red. masses --      1.4113                 1.3072                 1.5967
 Frc consts  --      0.7342                 0.7228                 0.9104
 IR Inten    --      1.5454                 0.0537                83.9478

                     19                     20                     21
                      A                      A                      A
 Frequencies --   1014.8452              1044.9707              1058.5551
 Red. masses --      1.9573                 1.5682                 1.2165
 Frc consts  --      1.1877                 1.0089                 0.8032
 IR Inten    --     81.6382                47.6245               179.9769

                     22                     23                     24
                      A                      A                      A
 Frequencies --   1099.0478              1124.7712              1259.5154
 Red. masses --      1.4177                 1.0735                 1.4081
 Frc consts  --      1.0089                 0.8002                 1.3161
 IR Inten    --      2.8162                 7.2506                27.2243

                     25                     26                     27
                      A                      A                      A
 Frequencies --   1344.7428              1364.8501              1437.2839
 Red. masses --      2.7745                 3.3820                 2.7534
 Frc consts  --      2.9560                 3.7119                 3.3512
 IR Inten    --     16.1065                 8.3440                71.3229

                     28                     29                     30
                      A                      A                      A
 Frequencies --   1498.0277              1508.9052              1569.8249
 Red. masses --      3.0245                 1.5416                 1.6138
 Frc consts  --      3.9990                 2.0680                 2.3431
 IR Inten    --    218.4042                26.8434                93.2356

                     31                     32                     33
                      A                      A                      A
 Frequencies --   1627.2078              1662.9382              2621.6026
 Red. masses --      3.0993                 3.5657                 1.0817
 Frc consts  --      4.8351                 5.8096                 4.3802
 IR Inten    --    176.0973                93.8744               148.4257

                     34                     35                     36
                      A                      A                      A
 Frequencies --   2881.0455              3093.4439              3113.5910
 Red. masses --      1.0661                 1.0909                 1.0894
 Frc consts  --      5.2137                 6.1505                 6.2227
 IR Inten    --   2765.2217                 7.9448                 2.8371

                     37                     38                     39
                      A                      A                      A
 Frequencies --   3141.6684              3146.2838              3790.5974
 Red. masses --      1.0935                 1.0974                 1.0657
 Frc consts  --      6.3588                 6.4005                 9.0222
 IR Inten    --      1.0126                 1.0422                68.5083

 - Thermochemistry -
 -------------------
 Temperature   298.150 Kelvin.  Pressure   1.00000 Atm.
 Atom     1 has atomic number  8 and mass  15.99491

 Molecular mass:   113.04768 amu.
 Principal axes and moments of inertia in atomic units:
                           1         2         3
     Eigenvalues --   436.302051177.377051609.42648
           X            0.99989  -0.01353   0.00674
           Y            0.01356   0.99990  -0.00458
           Z           -0.00668   0.00467   0.99997
 This molecule is an asymmetric top.
 Rotational symmetry number  1.
 Warning -- assumption of classical behavior for rotation
           may cause significant error
 Rotational temperatures (Kelvin)      0.19852     0.07357     0.05382
 Rotational constants (GHZ):           4.13645     1.53285     1.12136
 Zero-point vibrational energy     303996.4 (Joules/Mol)
                                   72.65689 (Kcal/Mol)
 Warning -- explicit consideration of  10 degrees of freedom as
           vibrations may cause significant error
 Vibrational temperatures:    122.66   291.41   325.68   396.38   499.01
          (Kelvin)            584.00   725.93   733.52   754.57   826.77
                              917.69  1058.26  1121.23  1227.62  1246.83
                             1352.02  1393.79  1415.40  1460.13  1503.48
                             1523.02  1581.28  1618.29  1812.16  1934.78
                             1963.71  2067.93  2155.33  2170.98  2258.63
                             2341.19  2392.59  3771.90  4145.18  4450.77
                             4479.76  4520.15  4526.80  5453.82

 Zero-point correction=                           0.115786 (Hartree/Particle)
 Thermal correction to Energy=                    0.123174
 Thermal correction to Enthalpy=                  0.124118
 Thermal correction to Gibbs Free Energy=         0.084132
 Sum of electronic and zero-point Energies=           -397.919191
 Sum of electronic and thermal Energies=              -397.911803
 Sum of electronic and thermal Enthalpies=            -397.910859
 Sum of electronic and thermal Free Energies=         -397.950846

                     E (Thermal)             CV                S
                      KCal/Mol        Cal/Mol-Kelvin    Cal/Mol-Kelvin
 Total                   77.293             28.194             84.159
 Electronic               0.000              0.000              0.000
 Translational            0.889              2.981             40.084
 Rotational               0.889              2.981             28.205
 Vibrational             75.515             22.232             15.871
 Vibration     1          0.601              1.959              3.766
 Vibration     2          0.639              1.836              2.110
 Vibration     3          0.650              1.801              1.908
 Vibration     4          0.677              1.719              1.561
 Vibration     5          0.725              1.582              1.181
 Vibration     6          0.771              1.457              0.941
 Vibration     7          0.860              1.240              0.647
 Vibration     8          0.865              1.228              0.634
 Vibration     9          0.879              1.196              0.600
 Vibration    10          0.931              1.086              0.495

 Normal termination of Gaussian 09 at Fri Aug 27 00:02:52 2021.
