 Gaussian 09, Revision E.01,
 Gaussian 09:  EM64L-G09RevE.01 30-Nov-2015

 --------------------
 #p opt freq SVWN/gen
 --------------------

 ------------------------
 PY_H2O_SVWN_PC2_OPT_FREQ
 ------------------------
 Symbolic Z-matrix:
 Charge =  0 Multiplicity = 1

 SCF Done:  E(RS-VWN) =  -398.031591244     A.U. after   16 cycles
 SCF Done:  E(RS-VWN) =  -398.033701155     A.U. after   12 cycles
 SCF Done:  E(RS-VWN) =  -398.035469429     A.U. after   12 cycles
 SCF Done:  E(RS-VWN) =  -398.036336394     A.U. after   12 cycles
 SCF Done:  E(RS-VWN) =  -398.036554032     A.U. after   11 cycles
 SCF Done:  E(RS-VWN) =  -398.036626772     A.U. after    9 cycles
 SCF Done:  E(RS-VWN) =  -398.036633624     A.U. after    8 cycles
 SCF Done:  E(RS-VWN) =  -398.036640373     A.U. after    8 cycles
 SCF Done:  E(RS-VWN) =  -398.036643100     A.U. after    8 cycles
 SCF Done:  E(RS-VWN) =  -398.036646827     A.U. after    8 cycles
 SCF Done:  E(RS-VWN) =  -398.036648832     A.U. after    8 cycles
 SCF Done:  E(RS-VWN) =  -398.036650598     A.U. after    8 cycles
 SCF Done:  E(RS-VWN) =  -398.036651447     A.U. after    8 cycles
 SCF Done:  E(RS-VWN) =  -398.036651658     A.U. after    7 cycles
 Optimization completed.
    -- Stationary point found.
 Normal termination of Gaussian 09 at Fri Aug 27 00:02:51 2021.

 -----------------------------------------------------------------
 #P Geom=AllCheck Guess=TCheck SCRF=Check GenChk RSVWN/ChkBas Freq
 -----------------------------------------------------------------

 Structure from the checkpoint file:  "PY_H2O_SVWN_PC2_OPT_FREQ.chk"
 ------------------------
 PY_H2O_SVWN_PC2_OPT_FREQ
 ------------------------
 Charge =  0 Multiplicity = 1

                         Standard orientation:
 ---------------------------------------------------------------------
 Center     Atomic      Atomic             Coordinates (Angstroms)
 Number     Number       Type             X           Y           Z
 ---------------------------------------------------------------------
      1          8           0        1.321639    1.355742   -0.000799
      2          7           0        0.277951   -0.662820    0.004523
      3          6           0        0.251578    0.717694    0.003128
      4          6           0       -1.047979    1.292431    0.004505
      5          6           0       -0.812863   -1.439762    0.002699
      6          6           0       -2.160206    0.505828    0.002402
      7          6           0       -2.059371   -0.893047    0.000744
      8          1           0        2.473930    0.299188   -0.035965
      9          1           0       -1.103215    2.381196    0.004213
     10          1           0       -0.635977   -2.516616    0.000402
     11          1           0       -3.148441    0.972539    0.001103
     12          1           0       -2.940225   -1.532257   -0.002722
     13          8           0        2.872617   -0.643649   -0.085297
     14          1           0        3.562057   -0.714286    0.590165
     15          1           0        1.265203   -1.045631    0.019035
 ---------------------------------------------------------------------

 SCF Done:  E(RS-VWN) =  -398.036651658     A.U. after    1 cycles

 The electronic state is 1-A.
 Alpha  occ. eigenvalues --  -18.59678 -18.58509 -13.92692  -9.89752  -9.86101
 Alpha  occ. eigenvalues --   -9.82724  -9.81304  -9.81029  -0.98081  -0.91621
 Alpha  occ. eigenvalues --   -0.90221  -0.77200  -0.71506  -0.62355  -0.60433
 Alpha  occ. eigenvalues --   -0.53793  -0.50529  -0.48217  -0.45250  -0.44063
 Alpha  occ. eigenvalues --   -0.43505  -0.41402  -0.37293  -0.36686  -0.34538
 Alpha  occ. eigenvalues --   -0.34018  -0.31259  -0.28424  -0.25167  -0.23356
 Alpha virt. eigenvalues --   -0.10815  -0.06345  -0.02357  -0.00712   0.00831
 Alpha virt. eigenvalues --    0.02618   0.04590   0.05326   0.06246   0.08197
 Alpha virt. eigenvalues --    0.09792   0.10458   0.11896   0.13589   0.14016

 Mulliken charges:
               1
     1  O   -0.464641
     2  N   -0.241978
     3  C    0.397258
     4  C   -0.176809
     5  C    0.121754
     6  C    0.000910
     7  C   -0.183183
     8  H    0.226348
     9  H    0.100218
    10  H    0.111287
    11  H    0.099395
    12  H    0.087838
    13  O   -0.484225
    14  H    0.228118
    15  H    0.177712
 Sum of Mulliken charges =  -0.00000

 Dipole moment (field-independent basis, Debye):
    X=             -2.4582    Y=             -2.0898    Z=              1.2235  Tot=              3.4507
 Quadrupole moment (field-independent basis, Debye-Ang):
   XX=            -42.4217   YY=            -45.5059   ZZ=            -49.9091
   XY=             -2.5825   XZ=              4.8397   YZ=             -1.0442

  Exact polarizability: 106.169   4.605  86.197   1.069  -0.330  44.783
 Approx polarizability: 200.343  21.487 180.388   1.699  -0.471  75.131

                      1                      2                      3
                      A                      A                      A
 Frequencies --     87.8959               182.5472               227.4461
 Red. masses --      4.6904                 5.1471                 5.6446
 Frc consts  --      0.0214                 0.1011                 0.1720
 IR Inten    --      3.7109                 1.6519                28.2685

                      4                      5                      6
                      A                      A                      A
 Frequencies --    265.9976               292.1395               395.5792
 Red. masses --      2.3807                 1.5865                 3.3535
 Frc consts  --      0.0992                 0.0798                 0.3092
 IR Inten    --     33.3019                82.4346                 1.2349

                      7                      8                      9
                      A                      A                      A
 Frequencies --    507.7616               509.7760               538.4627
 Red. masses --      2.9495                 4.4408                 1.2297
 Frc consts  --      0.4480                 0.6799                 0.2101
 IR Inten    --     32.8498                41.4629                95.6334

                     10                     11                     12
                      A                      A                      A
 Frequencies --    555.0683               618.3232               724.8823
 Red. masses --      4.3740                 6.4037                 1.7394
 Frc consts  --      0.7940                 1.4425                 0.5385
 IR Inten    --     16.6767                 0.0780                34.0313

                     13                     14                     15
                      A                      A                      A
 Frequencies --    761.6663               841.6606               848.5741
 Red. masses --      1.9524                 1.6490                 5.1778
 Frc consts  --      0.6673                 0.6882                 2.1967
 IR Inten    --     34.0848                 6.0583                 0.8238

                     16                     17                     18
                      A                      A                      A
 Frequencies --    915.0416               969.0016               977.2690
 Red. masses --      1.3860                 1.3032                 1.0810
 Frc consts  --      0.6838                 0.7209                 0.6083
 IR Inten    --     10.7026                 0.3005               206.6621

                     19                     20                     21
                      A                      A                      A
 Frequencies --    985.8645              1032.1035              1035.1261
 Red. masses --      4.4938                 1.5265                 1.3417
 Frc consts  --      2.5733                 0.9581                 0.8470
 IR Inten    --     28.6799                74.4820                88.1656

                     22                     23                     24
                      A                      A                      A
 Frequencies --   1104.4663              1125.5974              1223.1440
 Red. masses --      1.4003                 1.0756                 1.3850
 Frc consts  --      1.0064                 0.8029                 1.2209
 IR Inten    --      8.5831                 8.0197                 1.9243

                     25                     26                     27
                      A                      A                      A
 Frequencies --   1302.3422              1366.0710              1434.4525
 Red. masses --      2.5032                 1.9402                 2.1057
 Frc consts  --      2.5015                 2.1333                 2.5528
 IR Inten    --     16.1934                 8.8198                 7.6281

                     28                     29                     30
                      A                      A                      A
 Frequencies --   1491.2017              1560.3435              1578.4351
 Red. masses --      3.1904                 1.2106                 5.4771
 Frc consts  --      4.1799                 1.7365                 8.0400
 IR Inten    --      6.2394               361.6725                28.7465

                     31                     32                     33
                      A                      A                      A
 Frequencies --   1634.1647              1728.5792              2764.1121
 Red. masses --      3.8783                 3.3592                 1.0877
 Frc consts  --      6.1022                 5.9137                 4.8964
 IR Inten    --     35.9182               482.0200               185.4089

                     34                     35                     36
                      A                      A                      A
 Frequencies --   2951.6896              3107.8496              3129.5838
 Red. masses --      1.0804                 1.0898                 1.0919
 Frc consts  --      5.5459                 6.2017                 6.3008
 IR Inten    --   2040.3803                 4.0975                 0.7520

                     37                     38                     39
                      A                      A                      A
 Frequencies --   3147.0202              3161.5851              3806.4521
 Red. masses --      1.0940                 1.0969                 1.0659
 Frc consts  --      6.3836                 6.4597                 9.0994
 IR Inten    --      0.1811                 0.3800                64.1235

 - Thermochemistry -
 -------------------
 Temperature   298.150 Kelvin.  Pressure   1.00000 Atm.
 Atom     1 has atomic number  8 and mass  15.99491

 Molecular mass:   113.04768 amu.
 Principal axes and moments of inertia in atomic units:
                           1         2         3
     Eigenvalues --   440.747931182.632111620.14492
           X            0.99990  -0.01286   0.00614
           Y            0.01288   0.99991  -0.00377
           Z           -0.00609   0.00384   0.99997
 This molecule is an asymmetric top.
 Rotational symmetry number  1.
 Warning -- assumption of classical behavior for rotation
           may cause significant error
 Rotational temperatures (Kelvin)      0.19652     0.07324     0.05346
 Rotational constants (GHZ):           4.09472     1.52604     1.11394
 Zero-point vibrational energy     304385.5 (Joules/Mol)
                                   72.74987 (Kcal/Mol)
 Warning -- explicit consideration of  11 degrees of freedom as
           vibrations may cause significant error
 Vibrational temperatures:    126.46   262.64   327.24   382.71   420.32
          (Kelvin)            569.15   730.55   733.45   774.73   798.62
                              889.63  1042.94  1095.87  1210.96  1220.91
                             1316.54  1394.18  1406.07  1418.44  1484.96
                             1489.31  1589.08  1619.48  1759.83  1873.78
                             1965.47  2063.85  2145.50  2244.98  2271.01
                             2351.20  2487.04  3976.94  4246.82  4471.50
                             4502.77  4527.85  4548.81  5476.63

 Zero-point correction=                           0.115934 (Hartree/Particle)
 Thermal correction to Energy=                    0.123478
 Thermal correction to Enthalpy=                  0.124422
 Thermal correction to Gibbs Free Energy=         0.084130
 Sum of electronic and zero-point Energies=           -397.920717
 Sum of electronic and thermal Energies=              -397.913174
 Sum of electronic and thermal Enthalpies=            -397.912230
 Sum of electronic and thermal Free Energies=         -397.952522

                     E (Thermal)             CV                S
                      KCal/Mol        Cal/Mol-Kelvin    Cal/Mol-Kelvin
 Total                   77.483             28.622             84.802
 Electronic               0.000              0.000              0.000
 Translational            0.889              2.981             40.084
 Rotational               0.889              2.981             28.226
 Vibrational             75.706             22.661             16.492
 Vibration     1          0.601              1.958              3.706
 Vibration     2          0.630              1.864              2.302
 Vibration     3          0.651              1.799              1.899
 Vibration     4          0.672              1.735              1.622
 Vibration     5          0.688              1.688              1.462
 Vibration     6          0.762              1.480              0.979
 Vibration     7          0.863              1.233              0.639
 Vibration     8          0.865              1.228              0.634
 Vibration     9          0.894              1.165              0.569
 Vibration    10          0.911              1.129              0.534
 Vibration    11          0.978              0.993              0.419

 Normal termination of Gaussian 09 at Fri Aug 27 00:03:43 2021.
