 Gaussian 09, Revision E.01,
 Gaussian 09:  EM64L-G09RevE.01 30-Nov-2015

 ----------------------------------------------------------------------
 #p opt=(calcfc,qst3,maxcycle=200,cartesian) freq SVWN/gen geom=connect
 ivity int=acc2e=12 scf=(novaracc,noincfock)
 ----------------------------------------------------------------------

 ------------------------
 HY_H2O_SVWN_PC2_OPT_FREQ
 ------------------------
 Symbolic Z-matrix:
 Charge =  0 Multiplicity = 1

 ------------------------
 PY_H2O_SVWN_PC2_OPT_FREQ
 ------------------------
 Symbolic Z-matrix:
 Charge =  0 Multiplicity = 1

 ------------
 TST_H2O_SVWN
 ------------
 Symbolic Z-matrix:
 Charge =  0 Multiplicity = 1

 SCF Done:  E(RS-VWN) =  -398.013451783     A.U. after   14 cycles
 SCF Done:  E(RS-VWN) =  -398.012629327     A.U. after   11 cycles
 SCF Done:  E(RS-VWN) =  -398.009773778     A.U. after   11 cycles
 SCF Done:  E(RS-VWN) =  -398.008441245     A.U. after   11 cycles
 SCF Done:  E(RS-VWN) =  -398.005026843     A.U. after   11 cycles
 SCF Done:  E(RS-VWN) =  -398.007969673     A.U. after   11 cycles
 SCF Done:  E(RS-VWN) =  -398.009204467     A.U. after   13 cycles
 SCF Done:  E(RS-VWN) =  -398.017974277     A.U. after   11 cycles
 SCF Done:  E(RS-VWN) =  -398.020046046     A.U. after   11 cycles
 SCF Done:  E(RS-VWN) =  -398.020230013     A.U. after   11 cycles
 SCF Done:  E(RS-VWN) =  -398.027397442     A.U. after   11 cycles
 SCF Done:  E(RS-VWN) =  -398.028654561     A.U. after   12 cycles
 SCF Done:  E(RS-VWN) =  -398.029664997     A.U. after   11 cycles
 SCF Done:  E(RS-VWN) =  -398.029531938     A.U. after   10 cycles
 SCF Done:  E(RS-VWN) =  -398.029640765     A.U. after   11 cycles
 SCF Done:  E(RS-VWN) =  -398.029660891     A.U. after    9 cycles
 SCF Done:  E(RS-VWN) =  -398.029663380     A.U. after    8 cycles
 SCF Done:  E(RS-VWN) =  -398.029664814     A.U. after    8 cycles
 SCF Done:  E(RS-VWN) =  -398.029665273     A.U. after    8 cycles
 Optimization completed.
    -- Stationary point found.
 Normal termination of Gaussian 09 at Sun Aug 29 01:28:16 2021.

 -----------------------------------------------------------------
 #P Geom=AllCheck Guess=TCheck SCRF=Check GenChk RSVWN/ChkBas Freq
 -----------------------------------------------------------------

 Structure from the checkpoint file:  "TST_H2O_SVWN.chk"
 ------------------------
 HY_H2O_SVWN_PC2_OPT_FREQ
 ------------------------
 Charge =  0 Multiplicity = 1

                         Standard orientation:
 ---------------------------------------------------------------------
 Center     Atomic      Atomic             Coordinates (Angstroms)
 Number     Number       Type             X           Y           Z
 ---------------------------------------------------------------------
      1          8           0        1.370653    1.320289   -0.011689
      2          7           0        0.310179   -0.682937   -0.011838
      3          6           0        0.262722    0.673075   -0.003833
      4          6           0       -0.994871    1.299823    0.010936
      5          6           0       -0.795771   -1.424521   -0.008464
      6          6           0       -2.127792    0.532250    0.014331
      7          6           0       -2.043544   -0.860298    0.004495
      8          1           0        2.231630    0.482045   -0.022710
      9          1           0       -1.024831    2.389581    0.016597
     10          1           0       -0.649771   -2.507539   -0.020185
     11          1           0       -3.107066    1.016702    0.023804
     12          1           0       -2.933514   -1.488027    0.004986
     13          8           0        2.720431   -0.643989   -0.079035
     14          1           0        3.244393   -0.858210    0.707557
     15          1           0        1.534762   -0.986365   -0.006187
 ---------------------------------------------------------------------

 SCF Done:  E(RS-VWN) =  -398.029665273     A.U. after    1 cycles

 The electronic state is 1-A.
 Alpha  occ. eigenvalues --  -18.60480 -18.59704 -13.90393  -9.89745  -9.85351
 Alpha  occ. eigenvalues --   -9.82614  -9.81082  -9.81070  -0.99394  -0.91015
 Alpha  occ. eigenvalues --   -0.89418  -0.76584  -0.71261  -0.62188  -0.59527
 Alpha  occ. eigenvalues --   -0.52920  -0.51888  -0.47732  -0.45316  -0.43441
 Alpha  occ. eigenvalues --   -0.43199  -0.40920  -0.37653  -0.37022  -0.34582
 Alpha  occ. eigenvalues --   -0.33205  -0.30716  -0.28577  -0.26162  -0.23757
 Alpha virt. eigenvalues --   -0.10363  -0.06683  -0.02138  -0.00730   0.01028
 Alpha virt. eigenvalues --    0.02933   0.04652   0.05596   0.06515   0.08776
 Alpha virt. eigenvalues --    0.09921   0.10718   0.12025   0.13855   0.14176

 Mulliken charges:
               1
     1  O   -0.425122
     2  N   -0.346154
     3  C    0.423067
     4  C   -0.178376
     5  C    0.116153
     6  C    0.009079
     7  C   -0.187689
     8  H    0.240087
     9  H    0.099139
    10  H    0.105114
    11  H    0.099094
    12  H    0.086594
    13  O   -0.503128
    14  H    0.228182
    15  H    0.233959
 Sum of Mulliken charges =  -0.00000

 Dipole moment (field-independent basis, Debye):
    X=             -2.4113    Y=             -1.6581    Z=              1.3959  Tot=              3.2422
 Quadrupole moment (field-independent basis, Debye-Ang):
   XX=            -44.0272   YY=            -45.2251   ZZ=            -49.5075
   XY=             -2.7313   XZ=              5.0185   YZ=             -1.3437

  Exact polarizability: 107.533   2.405  86.238   1.133  -0.276  44.744
 Approx polarizability: 201.247  15.983 179.095   1.213  -0.406  75.798

 ******    1 imaginary frequencies (negative Signs) ******

                      1                      2                      3
                      A                      A                      A
 Frequencies --  -1074.6013               106.4456               200.6053
 Red. masses --      1.0645                 5.0861                 5.0529
 Frc consts  --      0.7243                 0.0340                 0.1198
 IR Inten    --    209.2255                 3.6733                 1.7638

                      4                      5                      6
                      A                      A                      A
 Frequencies --    329.8000               401.5140               433.8311
 Red. masses --      5.3206                 2.9477                 2.2243
 Frc consts  --      0.3410                 0.2800                 0.2467
 IR Inten    --      3.8671                 9.7437                44.7745

                      7                      8                      9
                      A                      A                      A
 Frequencies --    486.5672               524.2704               566.2316
 Red. masses --      1.9538                 2.3340                 3.7050
 Frc consts  --      0.2725                 0.3780                 0.6999
 IR Inten    --      7.3653                18.4194                26.5431

                     10                     11                     12
                      A                      A                      A
 Frequencies --    592.5826               644.5903               712.7535
 Red. masses --      1.5130                 4.4150                 7.6873
 Frc consts  --      0.3130                 1.0808                 2.3009
 IR Inten    --     50.0878                14.3122                14.8459

                     13                     14                     15
                      A                      A                      A
 Frequencies --    733.6185               774.1602               849.8043
 Red. masses --      1.5996                 2.2456                 1.6233
 Frc consts  --      0.5072                 0.7930                 0.6907
 IR Inten    --     36.6852                28.8260                 6.3518

                     16                     17                     18
                      A                      A                      A
 Frequencies --    866.9866               931.8202               968.4624
 Red. masses --      5.4892                 1.3958                 1.3072
 Frc consts  --      2.4310                 0.7141                 0.7224
 IR Inten    --      1.6303                 1.8506                 0.0461

                     19                     20                     21
                      A                      A                      A
 Frequencies --   1003.1283              1043.0074              1111.4761
 Red. masses --      3.8251                 2.0759                 1.3564
 Frc consts  --      2.2678                 1.3305                 0.9873
 IR Inten    --     98.1751                 8.0485                12.6246

                     22                     23                     24
                      A                      A                      A
 Frequencies --   1128.8774              1262.3094              1307.1584
 Red. masses --      1.0907                 1.4643                 1.1223
 Frc consts  --      0.8189                 1.3747                 1.1299
 IR Inten    --      5.8298                 2.0557                29.6888

                     25                     26                     27
                      A                      A                      A
 Frequencies --   1356.0277              1375.6916              1389.0936
 Red. masses --      2.5928                 2.2942                 1.1705
 Frc consts  --      2.8090                 2.5581                 1.3307
 IR Inten    --     27.6917                23.8415               154.7395

                     28                     29                     30
                      A                      A                      A
 Frequencies --   1469.4133              1496.6378              1556.6640
 Red. masses --      3.0520                 1.4529                 1.7844
 Frc consts  --      3.8826                 1.9174                 2.5476
 IR Inten    --    117.4143              4571.8836               665.4286

                     31                     32                     33
                      A                      A                      A
 Frequencies --   1573.2150              1642.4785              1687.3893
 Red. masses --      4.9836                 1.6302                 4.4727
 Frc consts  --      7.2672                 2.5912                 7.5033
 IR Inten    --     86.6385               328.6389               237.2305

                     34                     35                     36
                      A                      A                      A
 Frequencies --   1898.0628              3108.9249              3112.1072
 Red. masses --      1.0599                 1.0900                 1.0912
 Frc consts  --      2.2497                 6.2071                 6.2268
 IR Inten    --      4.1623                 3.7949                 3.7227

                     37                     38                     39
                      A                      A                      A
 Frequencies --   3145.2583              3152.9565              3784.4211
 Red. masses --      1.0939                 1.0966                 1.0658
 Frc consts  --      6.3761                 6.4229                 8.9936
 IR Inten    --      0.2132                 0.8174                51.4663

 - Thermochemistry -
 -------------------
 Temperature   298.150 Kelvin.  Pressure   1.00000 Atm.
 Atom     1 has atomic number  8 and mass  15.99491

 Molecular mass:   113.04768 amu.
 Principal axes and moments of inertia in atomic units:
                           1         2         3
     Eigenvalues --   432.935261117.928351546.61730
           X            0.99987  -0.01456   0.00684
           Y            0.01459   0.99988  -0.00443
           Z           -0.00678   0.00453   0.99997
 This molecule is an asymmetric top.
 Rotational symmetry number  1.
 Rotational temperatures (Kelvin)      0.20006     0.07748     0.05600
 Rotational constants (GHZ):           4.16862     1.61436     1.16690
    1 imaginary frequencies ignored.
 Zero-point vibrational energy     291460.2 (Joules/Mol)
                                   69.66066 (Kcal/Mol)
 Warning -- explicit consideration of   9 degrees of freedom as
           vibrations may cause significant error
 Vibrational temperatures:    153.15   288.63   474.51   577.69   624.19
          (Kelvin)            700.06   754.31   814.68   852.59   927.42
                             1025.49  1055.51  1113.84  1222.68  1247.40
                             1340.68  1393.40  1443.28  1500.65  1599.16
                             1624.20  1816.18  1880.71  1951.02  1979.31
                             1998.59  2114.16  2153.33  2239.69  2263.50
                             2363.16  2427.77  2730.89  4473.04  4477.62
                             4525.32  4536.40  5444.93

 Zero-point correction=                           0.111011 (Hartree/Particle)
 Thermal correction to Energy=                    0.117713
 Thermal correction to Enthalpy=                  0.118658
 Thermal correction to Gibbs Free Energy=         0.080091
 Sum of electronic and zero-point Energies=           -397.918654
 Sum of electronic and thermal Energies=              -397.911952
 Sum of electronic and thermal Enthalpies=            -397.911008
 Sum of electronic and thermal Free Energies=         -397.949574

                     E (Thermal)             CV                S
                      KCal/Mol        Cal/Mol-Kelvin    Cal/Mol-Kelvin
 Total                   73.866             26.319             81.170
 Electronic               0.000              0.000              0.000
 Translational            0.889              2.981             40.084
 Rotational               0.889              2.981             28.106
 Vibrational             72.089             20.357             12.980
 Vibration     1          0.605              1.944              3.333
 Vibration     2          0.638              1.839              2.128
 Vibration     3          0.713              1.616              1.261
 Vibration     4          0.767              1.467              0.957
 Vibration     5          0.795              1.397              0.846
 Vibration     6          0.843              1.280              0.693
 Vibration     7          0.879              1.196              0.600
 Vibration     8          0.922              1.104              0.512
 Vibration     9          0.950              1.048              0.463

 Optimization completed.
    -- Stationary point found.
 Normal termination of Gaussian 09 at Sun Aug 29 01:29:15 2021.
