 Gaussian 09, Revision E.01,
 Gaussian 09:  EM64L-G09RevE.01 30-Nov-2015

 -----------------------
 #p opt freq LC-wPBE/gen
 -----------------------

 -----------------------
 PY_LC-wPBE_PC2_OPT_FREQ
 -----------------------
 Symbolic Z-matrix:
 Charge =  0 Multiplicity = 1

 SCF Done:  E(RLC-wPBE) =  -323.429602277     A.U. after   16 cycles
 SCF Done:  E(RLC-wPBE) =  -323.429798995     A.U. after   11 cycles
 SCF Done:  E(RLC-wPBE) =  -323.429832198     A.U. after   10 cycles
 SCF Done:  E(RLC-wPBE) =  -323.429835101     A.U. after    9 cycles
 Optimization completed.
    -- Stationary point found.
 Normal termination of Gaussian 09 at Fri Aug 27 00:12:51 2021.

 --------------------------------------------------------------------
 #P Geom=AllCheck Guess=TCheck SCRF=Check GenChk RLC-wPBE/ChkBas Freq
 --------------------------------------------------------------------

 Structure from the checkpoint file:  "PY_LC-wPBE_PC2_OPT_FREQ.chk"
 -----------------------
 PY_LC-wPBE_PC2_OPT_FREQ
 -----------------------
 Charge =  0 Multiplicity = 1

                         Standard orientation:
 ---------------------------------------------------------------------
 Center     Atomic      Atomic             Coordinates (Angstroms)
 Number     Number       Type             X           Y           Z
 ---------------------------------------------------------------------
      1          8           0       -0.115491    2.264632   -0.000000
      2          7           0       -1.128724    0.244867    0.000000
      3          6           0       -0.000000    1.054427   -0.000000
      4          6           0        1.241546    0.309346   -0.000000
      5          6           0       -1.116853   -1.112102    0.000000
      6          6           0        1.251344   -1.036102   -0.000000
      7          6           0        0.043000   -1.789915    0.000000
      8          1           0       -2.002599    0.747003    0.000000
      9          1           0        2.150829    0.893397   -0.000000
     10          1           0       -2.085148   -1.594311    0.000000
     11          1           0        2.198893   -1.562109   -0.000000
     12          1           0        0.048800   -2.869024    0.000000
 ---------------------------------------------------------------------

 SCF Done:  E(RLC-wPBE) =  -323.429835101     A.U. after    1 cycles

 The electronic state is 1-A'.
 Alpha  occ. eigenvalues --  -18.91889 -14.26439 -10.21337 -10.17685 -10.14035
 Alpha  occ. eigenvalues --  -10.11991 -10.11728  -1.18184  -1.10500  -0.97666
 Alpha  occ. eigenvalues --   -0.91053  -0.79903  -0.78228  -0.70125  -0.64309
 Alpha  occ. eigenvalues --   -0.62078  -0.59217  -0.58842  -0.55419  -0.51438
 Alpha  occ. eigenvalues --   -0.49772  -0.47867  -0.43286  -0.37624  -0.33034
 Alpha virt. eigenvalues --    0.03254   0.07863   0.08865   0.09867   0.11314
 Alpha virt. eigenvalues --    0.13889   0.14508   0.21682   0.21939   0.23060
 Alpha virt. eigenvalues --    0.24004   0.24356   0.26425   0.27809   0.27824

 Mulliken charges:
               1
     1  O   -0.469874
     2  N   -0.275155
     3  C    0.420111
     4  C   -0.155923
     5  C    0.199019
     6  C    0.046493
     7  C   -0.173982
     8  H    0.166857
     9  H    0.059226
    10  H    0.069360
    11  H    0.063644
    12  H    0.050222
 Sum of Mulliken charges =  -0.00000

 Dipole moment (field-independent basis, Debye):
    X=             -1.2219    Y=             -4.2292    Z=              0.0000  Tot=              4.4022
 Quadrupole moment (field-independent basis, Debye-Ang):
   XX=            -30.9391   YY=            -47.5315   ZZ=            -42.7348
   XY=             -0.0060   XZ=              0.0000   YZ=              0.0000

  Exact polarizability:  69.322  -0.245  86.324  -0.000  -0.000  36.712
 Approx polarizability:  71.255  -1.431  89.744  -0.000  -0.000  41.500

                      1                      2                      3
                     A"                     A"                     A'
 Frequencies --    171.5722               389.2446               463.1369
 Red. masses --      5.6667                 3.2420                 6.0652
 Frc consts  --      0.0983                 0.2894                 0.7665
 IR Inten    --      3.3811                 1.0501                 7.2193

                      4                      5                      6
                     A"                     A'                     A'
 Frequencies --    500.0692               552.6562               622.8671
 Red. masses --      2.0626                 7.8179                 6.7387
 Frc consts  --      0.3039                 1.4069                 1.5403
 IR Inten    --     39.5856                 7.7449                 0.1894

                      7                      8                      9
                     A"                     A"                     A"
 Frequencies --    706.9598               757.7139               799.0488
 Red. masses --      1.3069                 1.5691                 1.8544
 Frc consts  --      0.3849                 0.5308                 0.6976
 IR Inten    --     48.3412                 5.5745                67.2348

                     10                     11                     12
                     A'                     A"                     A"
 Frequencies --    847.6623               883.0472               999.7350
 Red. masses --      5.2139                 1.8624                 1.3222
 Frc consts  --      2.2073                 0.8556                 0.7786
 IR Inten    --      9.1945                24.2499                 0.0061

                     13                     14                     15
                     A'                     A'                     A"
 Frequencies --   1008.4264              1036.0250              1043.7492
 Red. masses --      5.1296                 2.3783                 1.3102
 Frc consts  --      3.0734                 1.5040                 0.8410
 IR Inten    --     14.1564                 6.6708                 0.1576

                     16                     17                     18
                     A'                     A'                     A'
 Frequencies --   1130.2471              1178.0760              1233.7757
 Red. masses --      1.5419                 1.1054                 1.1367
 Frc consts  --      1.1605                 0.9039                 1.0195
 IR Inten    --     20.1704                15.0089                18.8455

                     19                     20                     21
                     A'                     A'                     A'
 Frequencies --   1288.8819              1404.5210              1472.1960
 Red. masses --      2.8113                 1.5948                 2.0289
 Frc consts  --      2.7516                 1.8536                 2.5908
 IR Inten    --     16.6437                 2.3111                 6.4502

                     22                     23                     24
                     A'                     A'                     A'
 Frequencies --   1521.3520              1646.6842              1732.5715
 Red. masses --      2.6720                 5.8806                 5.5720
 Frc consts  --      3.6438                 9.3949                 9.8548
 IR Inten    --      3.9498                83.0626                60.7255

                     25                     26                     27
                     A'                     A'                     A'
 Frequencies --   1811.7538              3222.1476              3248.2228
 Red. masses --      8.4781                 1.0903                 1.0918
 Frc consts  --     16.3964                 6.6696                 6.7874
 IR Inten    --    735.5342                 6.5300                 0.6545

                     28                     29                     30
                     A'                     A'                     A'
 Frequencies --   3261.3253              3276.9602              3663.5684
 Red. masses --      1.0959                 1.0990                 1.0780
 Frc consts  --      6.8675                 6.9533                 8.5244
 IR Inten    --      0.3171                 1.2714                79.2422

 - Thermochemistry -
 -------------------
 Temperature   298.150 Kelvin.  Pressure   1.00000 Atm.
 Atom     1 has atomic number  8 and mass  15.99491

 Molecular mass:    95.03711 amu.
 Principal axes and moments of inertia in atomic units:
                           1         2         3
     Eigenvalues --   314.36965 636.62870 950.99835
           X           -0.05362   0.99856   0.00000
           Y            0.99856   0.05362   0.00000
           Z           -0.00000  -0.00000   1.00000
 This molecule is an asymmetric top.
 Rotational symmetry number  1.
 Rotational temperatures (Kelvin)      0.27552     0.13605     0.09108
 Rotational constants (GHZ):           5.74083     2.83484     1.89773
 Zero-point vibrational energy     250463.3 (Joules/Mol)
                                   59.86217 (Kcal/Mol)
 Warning -- explicit consideration of   5 degrees of freedom as
           vibrations may cause significant error
 Vibrational temperatures:    246.85   560.04   666.35   719.49   795.15
          (Kelvin)            896.17  1017.16  1090.18  1149.65  1219.60
                             1270.51  1438.39  1450.90  1490.61  1501.72
                             1626.17  1694.99  1775.13  1854.41  2020.79
                             2118.16  2188.88  2369.21  2492.78  2606.71
                             4635.95  4673.46  4692.31  4714.81  5271.05

 Zero-point correction=                           0.095396 (Hartree/Particle)
 Thermal correction to Energy=                    0.100597
 Thermal correction to Enthalpy=                  0.101541
 Thermal correction to Gibbs Free Energy=         0.066508
 Sum of electronic and zero-point Energies=           -323.334439
 Sum of electronic and thermal Energies=              -323.329238
 Sum of electronic and thermal Enthalpies=            -323.328294
 Sum of electronic and thermal Free Energies=         -323.363327

                     E (Thermal)             CV                S
                      KCal/Mol        Cal/Mol-Kelvin    Cal/Mol-Kelvin
 Total                   63.126             19.908             73.734
 Electronic               0.000              0.000              0.000
 Translational            0.889              2.981             39.566
 Rotational               0.889              2.981             26.745
 Vibrational             61.348             13.947              7.422
 Vibration     1          0.626              1.877              2.418
 Vibration     2          0.757              1.493              1.003
 Vibration     3          0.821              1.332              0.757
 Vibration     4          0.855              1.250              0.658
 Vibration     5          0.908              1.134              0.539

 Optimization completed.
    -- Stationary point found.
 Normal termination of Gaussian 09 at Fri Aug 27 00:13:40 2021.
