 Gaussian 09, Revision E.01,
 Gaussian 09:  EM64L-G09RevE.01 30-Nov-2015

 --------------------------------------------------
 #p opt=(calcfc,qst3,MaxCycle=200) freq LC-wPBE/gen
 --------------------------------------------------

 -----------------------
 HY_LC-wPBE_PC2_OPT_FREQ
 -----------------------
 Symbolic Z-matrix:
 Charge =  0 Multiplicity = 1

 -----------------------
 PY_LC-wPBE_PC2_OPT_FREQ
 -----------------------
 Symbolic Z-matrix:
 Charge =  0 Multiplicity = 1

 ---------------
 TST_GAS_LC-wPBE
 ---------------
 Symbolic Z-matrix:
 Charge =  0 Multiplicity = 1

 SCF Done:  E(RLC-wPBE) =  -323.349118531     A.U. after   15 cycles
 SCF Done:  E(RLC-wPBE) =  -323.359235714     A.U. after   15 cycles
 SCF Done:  E(RLC-wPBE) =  -323.370161606     A.U. after   14 cycles
 SCF Done:  E(RLC-wPBE) =  -323.373830002     A.U. after   15 cycles
 SCF Done:  E(RLC-wPBE) =  -323.379801704     A.U. after   14 cycles
 SCF Done:  E(RLC-wPBE) =  -323.373089865     A.U. after   15 cycles
 SCF Done:  E(RLC-wPBE) =  -323.370256413     A.U. after   14 cycles
 SCF Done:  E(RLC-wPBE) =  -323.370244330     A.U. after   14 cycles
 SCF Done:  E(RLC-wPBE) =  -323.370512107     A.U. after   13 cycles
 SCF Done:  E(RLC-wPBE) =  -323.368947788     A.U. after   14 cycles
 SCF Done:  E(RLC-wPBE) =  -323.370801258     A.U. after   14 cycles
 SCF Done:  E(RLC-wPBE) =  -323.370994661     A.U. after   14 cycles
 SCF Done:  E(RLC-wPBE) =  -323.371008608     A.U. after   12 cycles
 SCF Done:  E(RLC-wPBE) =  -323.371015798     A.U. after   10 cycles
 SCF Done:  E(RLC-wPBE) =  -323.371015953     A.U. after    8 cycles
 Optimization completed.
    -- Stationary point found.
 Normal termination of Gaussian 09 at Sat Aug 28 00:56:37 2021.

 --------------------------------------------------------------------
 #P Geom=AllCheck Guess=TCheck SCRF=Check GenChk RLC-wPBE/ChkBas Freq
 --------------------------------------------------------------------

 Structure from the checkpoint file:  "TST_GAS_LC-wPBE.chk"
 -----------------------
 HY_LC-wPBE_PC2_OPT_FREQ
 -----------------------
 Charge =  0 Multiplicity = 1

                         Standard orientation:
 ---------------------------------------------------------------------
 Center     Atomic      Atomic             Coordinates (Angstroms)
 Number     Number       Type             X           Y           Z
 ---------------------------------------------------------------------
      1          8           0       -2.216753    0.031149    0.000264
      2          7           0       -0.419364   -1.038856   -0.000303
      3          6           0       -0.948715    0.198872   -0.000047
      4          6           0       -0.113509    1.324329   -0.000182
      5          6           0        0.889193   -1.273050    0.000013
      6          6           0        1.233725    1.082056    0.000012
      7          6           0        1.760151   -0.217518    0.000183
      8          1           0       -1.683897   -1.215248    0.000066
      9          1           0       -0.528620    2.321021   -0.000289
     10          1           0        1.212331   -2.306016   -0.000173
     11          1           0        1.918183    1.922308    0.000020
     12          1           0        2.826506   -0.387393    0.000512
 ---------------------------------------------------------------------

 SCF Done:  E(RLC-wPBE) =  -323.371015953     A.U. after    1 cycles

 The electronic state is 1-A.
 Alpha  occ. eigenvalues --  -18.94471 -14.23835 -10.21248 -10.17558 -10.14831
 Alpha  occ. eigenvalues --  -10.12468 -10.12159  -1.20925  -1.08845  -0.97254
 Alpha  occ. eigenvalues --   -0.91048  -0.81244  -0.76630  -0.68848  -0.64708
 Alpha  occ. eigenvalues --   -0.60871  -0.59320  -0.57962  -0.55366  -0.51662
 Alpha  occ. eigenvalues --   -0.47817  -0.46731  -0.42647  -0.41472  -0.33473
 Alpha virt. eigenvalues --    0.02919   0.07638   0.08784   0.10240   0.11659
 Alpha virt. eigenvalues --    0.14009   0.14282   0.21534   0.22196   0.22335
 Alpha virt. eigenvalues --    0.23913   0.23927   0.26275   0.26872   0.27972

 Mulliken charges:
               1
     1  O   -0.506123
     2  N   -0.416065
     3  C    0.507606
     4  C   -0.162290
     5  C    0.194866
     6  C    0.070050
     7  C   -0.192805
     8  H    0.262313
     9  H    0.054717
    10  H    0.071488
    11  H    0.065099
    12  H    0.051145
 Sum of Mulliken charges =  -0.00000

 Dipole moment (field-independent basis, Debye):
    X=              3.5732    Y=             -0.3789    Z=             -0.0001  Tot=              3.5933
 Quadrupole moment (field-independent basis, Debye-Ang):
   XX=            -44.5201   YY=            -33.9077   ZZ=            -42.7695
   XY=              1.0077   XZ=              0.0019   YZ=             -0.0008

  Exact polarizability:  85.927  -1.475  71.758   0.001  -0.001  36.628
 Approx polarizability:  92.269  -2.350  77.556   0.000   0.000  41.576

 ******    1 imaginary frequencies (negative Signs) ******

                      1                      2                      3
                      A                      A                      A
 Frequencies --  -1910.1191               195.5667               416.7596
 Red. masses --      1.0750                 6.6592                 3.3467
 Frc consts  --      2.3108                 0.1501                 0.3425
 IR Inten    --    577.8427                 0.0655                 1.9700

                      4                      5                      6
                      A                      A                      A
 Frequencies --    498.9624               502.9220               613.8172
 Red. masses --      2.4053                 7.0836                 7.0688
 Frc consts  --      0.3528                 1.0556                 1.5692
 IR Inten    --     18.8246                 4.3326                 2.2730

                      7                      8                      9
                      A                      A                      A
 Frequencies --    682.4522               758.8271               793.0956
 Red. masses --      6.8892                 2.2811                 1.5742
 Frc consts  --      1.8904                 0.7739                 0.5834
 IR Inten    --      0.0939                10.8047                55.2877

                     10                     11                     12
                      A                      A                      A
 Frequencies --    882.6684               921.7338              1012.5217
 Red. masses --      1.3819                 5.7035                 1.3796
 Frc consts  --      0.6343                 2.8550                 0.8333
 IR Inten    --      2.1605                 8.5762                 1.5170

                     13                     14                     15
                      A                      A                      A
 Frequencies --   1026.8137              1043.0039              1060.8888
 Red. masses --      5.3334                 1.3305                 1.9691
 Frc consts  --      3.3131                 0.8528                 1.3057
 IR Inten    --     15.0979                 0.3176                 7.0229

                     16                     17                     18
                      A                      A                      A
 Frequencies --   1150.9094              1159.4846              1176.6086
 Red. masses --      1.1975                 1.3286                 1.1573
 Frc consts  --      0.9346                 1.0524                 0.9440
 IR Inten    --     67.0701                 9.7253                20.6681

                     19                     20                     21
                      A                      A                      A
 Frequencies --   1295.7355              1336.8273              1433.4196
 Red. masses --      2.7180                 1.9871                 2.4256
 Frc consts  --      2.6887                 2.0923                 2.9363
 IR Inten    --      7.1070                38.1037                12.4039

                     22                     23                     24
                      A                      A                      A
 Frequencies --   1520.4447              1591.7238              1657.3157
 Red. masses --      2.7810                 5.1805                 6.1852
 Frc consts  --      3.7878                 7.7332                10.0095
 IR Inten    --      4.6652               405.1472                53.8501

                     25                     26                     27
                      A                      A                      A
 Frequencies --   1733.6014              2197.9292              3224.0497
 Red. masses --      6.9740                 1.0673                 1.0906
 Frc consts  --     12.3490                 3.0378                 6.6790
 IR Inten    --    500.7216                80.7293                 5.0848

                     28                     29                     30
                      A                      A                      A
 Frequencies --   3241.6092              3268.6016              3272.6803
 Red. masses --      1.0921                 1.0966                 1.0968
 Frc consts  --      6.7615                 6.9028                 6.9212
 IR Inten    --      1.9768                 1.6473                 0.0362

 - Thermochemistry -
 -------------------
 Temperature   298.150 Kelvin.  Pressure   1.00000 Atm.
 Atom     1 has atomic number  8 and mass  15.99491

 Molecular mass:    95.03711 amu.
 Principal axes and moments of inertia in atomic units:
                           1         2         3
     Eigenvalues --   310.18717 618.46512 928.65226
           X            0.99997   0.00721   0.00001
           Y           -0.00721   0.99997  -0.00001
           Z           -0.00001   0.00001   1.00000
 This molecule is an asymmetric top.
 Rotational symmetry number  1.
 Rotational temperatures (Kelvin)      0.27923     0.14005     0.09327
 Rotational constants (GHZ):           5.81823     2.91810     1.94340
    1 imaginary frequencies ignored.
 Zero-point vibrational energy     237285.1 (Joules/Mol)
                                   56.71250 (Kcal/Mol)
 Warning -- explicit consideration of   5 degrees of freedom as
           vibrations may cause significant error
 Vibrational temperatures:    281.38   599.62   717.89   723.59   883.14
          (Kelvin)            981.90  1091.78  1141.09  1269.96  1326.17
                             1456.79  1477.35  1500.65  1526.38  1655.90
                             1668.24  1692.88  1864.27  1923.39  2062.37
                             2187.58  2290.13  2384.50  2494.26  3162.33
                             4638.68  4663.95  4702.78  4708.65

 Zero-point correction=                           0.090377 (Hartree/Particle)
 Thermal correction to Energy=                    0.095296
 Thermal correction to Enthalpy=                  0.096240
 Thermal correction to Gibbs Free Energy=         0.061703
 Sum of electronic and zero-point Energies=           -323.280639
 Sum of electronic and thermal Energies=              -323.275720
 Sum of electronic and thermal Enthalpies=            -323.274776
 Sum of electronic and thermal Free Energies=         -323.309313

                     E (Thermal)             CV                S
                      KCal/Mol        Cal/Mol-Kelvin    Cal/Mol-Kelvin
 Total                   59.799             18.615             72.689
 Electronic               0.000              0.000              0.000
 Translational            0.889              2.981             39.566
 Rotational               0.889              2.981             26.680
 Vibrational             58.022             12.653              6.443
 Vibration     1          0.636              1.846              2.174
 Vibration     2          0.780              1.434              0.903
 Vibration     3          0.854              1.252              0.661
 Vibration     4          0.858              1.244              0.651
 Vibration     5          0.973              1.003              0.426

 Optimization completed.
    -- Stationary point found.
 Normal termination of Gaussian 09 at Sat Aug 28 00:57:29 2021.
