 Gaussian 09, Revision E.01,
 Gaussian 09:  EM64L-G09RevE.01 30-Nov-2015

 ----------------------------------------------------------------------
 #p opt=(calcfc) freq TPSSh/gen SCF(novaracc,noincfock) int=acc2e=12 ge
 om=checkpoint
 ----------------------------------------------------------------------

 ----------------------
 4PY_TPSSh_PC2_OPT_FREQ
 ----------------------
 Structure from the checkpoint file:  "4PY_TPSSh_PC2_OPT_FREQ.chk"
 Charge =  0 Multiplicity = 1

 SCF Done:  E(RTPSSh) =  -323.648369813     A.U. after   14 cycles
 SCF Done:  E(RTPSSh) =  -323.648417996     A.U. after    9 cycles
 Optimization completed.
    -- Stationary point found.
 Normal termination of Gaussian 09 at Sun Sep  5 14:51:59 2021.

 ------------------------------------------------------------------
 #P Geom=AllCheck Guess=TCheck SCRF=Check GenChk RTPSSh/ChkBas Freq
 ------------------------------------------------------------------

 Structure from the checkpoint file:  "4PY_TPSSh_PC2_OPT_FREQ.chk"
 ----------------------
 4PY_TPSSh_PC2_OPT_FREQ
 ----------------------
 Charge =  0 Multiplicity = 1

                         Standard orientation:
 ---------------------------------------------------------------------
 Center     Atomic      Atomic             Coordinates (Angstroms)
 Number     Number       Type             X           Y           Z
 ---------------------------------------------------------------------
      1          6           0       -0.000001    1.045770    1.189267
      2          6           0       -0.000001   -0.306274    1.223315
      3          6           0        0.000006   -1.106521    0.000000
      4          6           0       -0.000001   -0.306274   -1.223315
      5          6           0       -0.000001    1.045770   -1.189267
      6          7           0       -0.000001    1.724535   -0.000000
      7          1           0       -0.000001    1.662680    2.077664
      8          1           0       -0.000001   -0.822800    2.173104
      9          1           0       -0.000001   -0.822800   -2.173104
     10          1           0       -0.000001    1.662680   -2.077664
     11          8           0        0.000002   -2.339568    0.000000
     12          1           0       -0.000005    2.730206   -0.000000
 ---------------------------------------------------------------------

 SCF Done:  E(RTPSSh) =  -323.648417996     A.U. after    1 cycles

 The electronic state is 1-A'.
 Alpha  occ. eigenvalues --  -18.99334 -14.32659 -10.17889 -10.17889 -10.17316
 Alpha  occ. eigenvalues --  -10.11869 -10.11869  -0.98262  -0.96873  -0.77331
 Alpha  occ. eigenvalues --   -0.77227  -0.63456  -0.61034  -0.57696  -0.48972
 Alpha  occ. eigenvalues --   -0.46705  -0.44315  -0.42884  -0.42447  -0.36581
 Alpha  occ. eigenvalues --   -0.36327  -0.34954  -0.27983  -0.21812  -0.20886
 Alpha virt. eigenvalues --   -0.03733  -0.03652  -0.01528   0.02890   0.04309
 Alpha virt. eigenvalues --    0.07242   0.07582   0.10970   0.12142   0.15071
 Alpha virt. eigenvalues --    0.15099   0.15271   0.16062   0.18633   0.18725

 Mulliken charges:
               1
     1  C    0.190810
     2  C   -0.157994
     3  C    0.385209
     4  C   -0.157994
     5  C    0.190810
     6  N   -0.311854
     7  H    0.062879
     8  H    0.034970
     9  H    0.034970
    10  H    0.062879
    11  O   -0.487688
    12  H    0.153003
 Sum of Mulliken charges =  -0.00000

 Dipole moment (field-independent basis, Debye):
    X=             -0.0000    Y=              6.9685    Z=             -0.0000  Tot=              6.9685
 Quadrupole moment (field-independent basis, Debye-Ang):
   XX=            -42.9669   YY=            -42.3563   ZZ=            -34.5328
   XY=             -0.0000   XZ=              0.0000   YZ=              0.0000

  Exact polarizability:  37.985  -0.000  92.108  -0.000  -0.000  70.815
 Approx polarizability:  59.091  -0.000 191.702   0.000  -0.000 107.970

                      1                      2                      3
                     A'                     A"                     A'
 Frequencies --    155.0053               416.1816               423.2913
 Red. masses --      5.3362                 3.2803                 2.3691
 Frc consts  --      0.0755                 0.3348                 0.2501
 IR Inten    --      0.6438                 0.0000                52.0524

                      4                      5                      6
                     A"                     A'                     A'
 Frequencies --    446.7709               512.8154               531.2114
 Red. masses --      5.8318                 8.2323                 1.2528
 Frc consts  --      0.6858                 1.2755                 0.2083
 IR Inten    --      4.7437                 7.6565                31.3338

                      7                      8                      9
                     A"                     A'                     A"
 Frequencies --    617.5565               719.7600               805.3026
 Red. masses --      6.6533                 2.4489                 1.2616
 Frc consts  --      1.4950                 0.7475                 0.4820
 IR Inten    --      1.5796                21.7897                 0.0000

                     10                     11                     12
                     A'                     A'                     A'
 Frequencies --    809.6331               855.6713               958.0024
 Red. masses --      4.9588                 2.2677                 1.1993
 Frc consts  --      1.9152                 0.9782                 0.6485
 IR Inten    --      3.7723                69.2695                 0.0045

                     13                     14                     15
                     A"                     A'                     A'
 Frequencies --    958.1989               998.0982              1019.4511
 Red. masses --      1.2783                 4.6056                 2.5276
 Frc consts  --      0.6915                 2.7032                 1.5477
 IR Inten    --      0.0000                54.0773                 0.0318

                     16                     17                     18
                     A"                     A'                     A"
 Frequencies --   1072.1468              1202.6805              1248.7583
 Red. masses --      1.8053                 1.2061                 1.7225
 Frc consts  --      1.2227                 1.0279                 1.5826
 IR Inten    --      2.2601                17.3904                 0.4262

                     19                     20                     21
                     A"                     A"                     A'
 Frequencies --   1257.1645              1414.1412              1435.6053
 Red. masses --      1.3454                 1.7632                 1.7941
 Frc consts  --      1.2528                 2.0775                 2.1786
 IR Inten    --     10.6562                 0.1973                 0.3661

                     22                     23                     24
                     A"                     A"                     A'
 Frequencies --   1525.5447              1616.6061              1651.8666
 Red. masses --      4.1839                 2.7449                 6.4401
 Frc consts  --      5.7369                 4.2265                10.3536
 IR Inten    --     90.5488                 5.7188                57.6016

                     25                     26                     27
                     A'                     A"                     A'
 Frequencies --   1694.0448              3192.0519              3192.3262
 Red. masses --      6.6277                 1.0879                 1.0884
 Frc consts  --     11.2063                 6.5311                 6.5353
 IR Inten    --    471.0366                 2.5063                 6.2185

                     28                     29                     30
                     A"                     A'                     A'
 Frequencies --   3210.9058              3212.3395              3641.8089
 Red. masses --      1.0967                 1.0973                 1.0788
 Frc consts  --      6.6620                 6.6717                 8.4302
 IR Inten    --      9.6144                 0.6895                92.0009

 - Thermochemistry -
 -------------------
 Temperature   298.150 Kelvin.  Pressure   1.00000 Atm.
 Atom     1 has atomic number  6 and mass  12.00000

 Molecular mass:    95.03711 amu.
 Principal axes and moments of inertia in atomic units:
                           1         2         3
     Eigenvalues --   314.53997 666.48714 981.02711
           X           -0.00000   0.00000   1.00000
           Y            1.00000   0.00000   0.00000
           Z           -0.00000   1.00000  -0.00000
 This molecule is an asymmetric top.
 Rotational symmetry number  1.
 Rotational temperatures (Kelvin)      0.27537     0.12996     0.08829
 Rotational constants (GHZ):           5.73772     2.70784     1.83964
 Zero-point vibrational energy     244007.9 (Joules/Mol)
                                   58.31930 (Kcal/Mol)
 Warning -- explicit consideration of   7 degrees of freedom as
           vibrations may cause significant error
 Vibrational temperatures:    223.02   598.79   609.02   642.80   737.83
          (Kelvin)            764.29   888.52  1035.57  1158.65  1164.88
                             1231.12  1378.35  1378.63  1436.04  1466.76
                             1542.58  1730.39  1796.68  1808.78  2034.63
                             2065.51  2194.92  2325.93  2376.66  2437.35
                             4592.64  4593.04  4619.77  4621.83  5239.74

 Zero-point correction=                           0.092938 (Hartree/Particle)
 Thermal correction to Energy=                    0.098397
 Thermal correction to Enthalpy=                  0.099341
 Thermal correction to Gibbs Free Energy=         0.063841
 Sum of electronic and zero-point Energies=           -323.555480
 Sum of electronic and thermal Energies=              -323.550021
 Sum of electronic and thermal Enthalpies=            -323.549077
 Sum of electronic and thermal Free Energies=         -323.584577

                     E (Thermal)             CV                S
                      KCal/Mol        Cal/Mol-Kelvin    Cal/Mol-Kelvin
 Total                   61.745             20.945             74.715
 Electronic               0.000              0.000              0.000
 Translational            0.889              2.981             39.566
 Rotational               0.889              2.981             26.822
 Vibrational             59.967             14.983              8.327
 Vibration     1          0.620              1.897              2.610
 Vibration     2          0.779              1.435              0.905
 Vibration     3          0.785              1.420              0.881
 Vibration     4          0.806              1.368              0.806
 Vibration     5          0.868              1.222              0.627
 Vibration     6          0.886              1.181              0.585
 Vibration     7          0.977              0.995              0.420

 Optimization completed.
    -- Stationary point found.
 Normal termination of Gaussian 09 at Sun Sep  5 14:55:58 2021.
