 Gaussian 09, Revision E.01,
 Gaussian 09:  EM64L-G09RevE.01 30-Nov-2015

 -------------------
 #p opt freq M06/gen
 -------------------

 --------------------
 4PY_M06_PC2_OPT_FREQ
 --------------------
 Symbolic Z-matrix:
 Charge =  0 Multiplicity = 1

 SCF Done:  E(RM06) =  -323.420327104     A.U. after   19 cycles
 SCF Done:  E(RM06) =  -323.421352125     A.U. after   14 cycles
 SCF Done:  E(RM06) =  -323.421365223     A.U. after    8 cycles
 SCF Done:  E(RM06) =  -323.421365899     A.U. after    7 cycles
 SCF Done:  E(RM06) =  -323.421365975     A.U. after    7 cycles
 Optimization completed.
    -- Stationary point found.
 Normal termination of Gaussian 09 at Fri Aug 27 21:28:26 2021.

 ----------------------------------------------------------------
 #P Geom=AllCheck Guess=TCheck SCRF=Check GenChk RM06/ChkBas Freq
 ----------------------------------------------------------------

 Structure from the checkpoint file:  "4PY_M06_PC2_OPT_FREQ.chk"
 --------------------
 4PY_M06_PC2_OPT_FREQ
 --------------------
 Charge =  0 Multiplicity = 1

                         Standard orientation:
 ---------------------------------------------------------------------
 Center     Atomic      Atomic             Coordinates (Angstroms)
 Number     Number       Type             X           Y           Z
 ---------------------------------------------------------------------
      1          6           0       -0.000025    1.038779    1.183619
      2          6           0       -0.000025   -0.304414    1.219204
      3          6           0       -0.000419   -1.103711   -0.000000
      4          6           0       -0.000025   -0.304414   -1.219204
      5          6           0       -0.000025    1.038779   -1.183619
      6          7           0       -0.000063    1.718057    0.000000
      7          1           0        0.000077    1.650614    2.075284
      8          1           0        0.000143   -0.824356    2.166279
      9          1           0        0.000143   -0.824356   -2.166279
     10          1           0        0.000077    1.650614   -2.075284
     11          8           0        0.000410   -2.323656   -0.000000
     12          1           0       -0.000161    2.720225    0.000000
 ---------------------------------------------------------------------

 SCF Done:  E(RM06) =  -323.421365975     A.U. after    1 cycles

 The electronic state is 1-A'.
 Alpha  occ. eigenvalues --  -19.14697 -14.45847 -10.30117 -10.30117 -10.30115
 Alpha  occ. eigenvalues --  -10.23781 -10.23781  -1.02766  -1.01215  -0.80723
 Alpha  occ. eigenvalues --   -0.80118  -0.66293  -0.63948  -0.60530  -0.52376
 Alpha  occ. eigenvalues --   -0.48989  -0.46865  -0.45870  -0.45651  -0.39942
 Alpha  occ. eigenvalues --   -0.39267  -0.38514  -0.30393  -0.24399  -0.24392
 Alpha virt. eigenvalues --   -0.02896  -0.01801  -0.01765   0.00555   0.03035
 Alpha virt. eigenvalues --    0.04556   0.05223   0.12596   0.12817   0.13828
 Alpha virt. eigenvalues --    0.15211   0.16414   0.16781   0.18910   0.19366

 Mulliken charges:
               1
     1  C    0.125586
     2  C   -0.156925
     3  C    0.456392
     4  C   -0.156925
     5  C    0.125586
     6  N   -0.258999
     7  H    0.068712
     8  H    0.047401
     9  H    0.047401
    10  H    0.068712
    11  O   -0.512883
    12  H    0.145942
 Sum of Mulliken charges =  -0.00000

 Dipole moment (field-independent basis, Debye):
    X=             -0.0012    Y=              6.8624    Z=             -0.0000  Tot=              6.8624
 Quadrupole moment (field-independent basis, Debye-Ang):
   XX=            -42.6066   YY=            -42.2288   ZZ=            -34.5828
   XY=              0.0024   XZ=             -0.0000   YZ=             -0.0000

  Exact polarizability:  37.915  -0.003  90.914  -0.000   0.000  68.543
 Approx polarizability:  54.836  -0.011 156.434  -0.000   0.000  94.112

                      1                      2                      3
                     A'                     A"                     A'
 Frequencies --    157.4657               419.9941               434.7782
 Red. masses --      5.4462                 3.3021                 2.4678
 Frc consts  --      0.0796                 0.3432                 0.2749
 IR Inten    --      0.8646                 0.0000                43.4970

                      4                      5                      6
                     A"                     A'                     A'
 Frequencies --    458.4483               518.2361               548.9716
 Red. masses --      5.7166                 8.2001                 1.2105
 Frc consts  --      0.7079                 1.2976                 0.2149
 IR Inten    --      5.7179                 6.5099                41.3710

                      7                      8                      9
                     A"                     A'                     A"
 Frequencies --    623.6715               727.6966               806.0983
 Red. masses --      6.6504                 2.2636                 1.2504
 Frc consts  --      1.5241                 0.7063                 0.4787
 IR Inten    --      1.3391                18.5517                 0.0000

                     10                     11                     12
                     A'                     A'                     A"
 Frequencies --    822.0899               862.6579               968.0587
 Red. masses --      4.7601                 2.4424                 1.2875
 Frc consts  --      1.8954                 1.0709                 0.7109
 IR Inten    --      5.2259                69.6247                 0.0000

                     13                     14                     15
                     A'                     A'                     A'
 Frequencies --    968.9066               999.6042              1020.2549
 Red. masses --      1.2128                 5.2445                 2.1628
 Frc consts  --      0.6708                 3.0875                 1.3264
 IR Inten    --      0.1023                50.9478                 4.8228

                     16                     17                     18
                     A"                     A'                     A"
 Frequencies --   1072.2312              1187.0430              1241.3032
 Red. masses --      1.6133                 1.1935                 1.4683
 Frc consts  --      1.0928                 0.9908                 1.3330
 IR Inten    --      1.9177                16.8393                 0.2985

                     19                     20                     21
                     A"                     A"                     A'
 Frequencies --   1254.1072              1412.8360              1426.3718
 Red. masses --      1.4938                 1.8386                 1.8317
 Frc consts  --      1.3843                 2.1623                 2.1957
 IR Inten    --     10.1592                 0.0060                 0.0041

                     22                     23                     24
                     A"                     A"                     A'
 Frequencies --   1537.0357              1638.0818              1694.8108
 Red. masses --      3.8194                 3.7197                 6.2933
 Frc consts  --      5.3163                 5.8808                10.6505
 IR Inten    --    116.1500                 0.5795                13.5469

                     25                     26                     27
                     A'                     A"                     A'
 Frequencies --   1750.1589              3187.3691              3188.6836
 Red. masses --      9.8223                 1.0902                 1.0909
 Frc consts  --     17.7262                 6.5255                 6.5353
 IR Inten    --    614.8640                 5.0054                 3.2134

                     28                     29                     30
                     A"                     A'                     A'
 Frequencies --   3217.9758              3218.8286              3675.7258
 Red. masses --      1.0951                 1.0958                 1.0791
 Frc consts  --      6.6815                 6.6894                 8.5900
 IR Inten    --      3.2874                 0.0019               109.4063

 - Thermochemistry -
 -------------------
 Temperature   298.150 Kelvin.  Pressure   1.00000 Atm.
 Atom     1 has atomic number  6 and mass  12.00000

 Molecular mass:    95.03711 amu.
 Principal axes and moments of inertia in atomic units:
                           1         2         3
     Eigenvalues --   312.24636 659.06818 971.31450
           X           -0.00007   0.00000   1.00000
           Y            1.00000   0.00000   0.00007
           Z           -0.00000   1.00000  -0.00000
 This molecule is an asymmetric top.
 Rotational symmetry number  1.
 Rotational temperatures (Kelvin)      0.27739     0.13142     0.08917
 Rotational constants (GHZ):           5.77986     2.73832     1.85804
 Zero-point vibrational energy     245470.7 (Joules/Mol)
                                   58.66890 (Kcal/Mol)
 Warning -- explicit consideration of   6 degrees of freedom as
           vibrations may cause significant error
 Vibrational temperatures:    226.56   604.28   625.55   659.60   745.63
          (Kelvin)            789.85   897.32  1046.99  1159.79  1182.80
                             1241.17  1392.82  1394.04  1438.21  1467.92
                             1542.70  1707.89  1785.96  1804.38  2032.75
                             2052.23  2211.45  2356.83  2438.45  2518.09
                             4585.91  4587.80  4629.94  4631.17  5288.54

 Zero-point correction=                           0.093495 (Hartree/Particle)
 Thermal correction to Energy=                    0.098896
 Thermal correction to Enthalpy=                  0.099840
 Thermal correction to Gibbs Free Energy=         0.064452
 Sum of electronic and zero-point Energies=           -323.327871
 Sum of electronic and thermal Energies=              -323.322470
 Sum of electronic and thermal Enthalpies=            -323.321526
 Sum of electronic and thermal Free Energies=         -323.356914

                     E (Thermal)             CV                S
                      KCal/Mol        Cal/Mol-Kelvin    Cal/Mol-Kelvin
 Total                   62.058             20.745             74.479
 Electronic               0.000              0.000              0.000
 Translational            0.889              2.981             39.566
 Rotational               0.889              2.981             26.794
 Vibrational             60.280             14.784              8.119
 Vibration     1          0.621              1.894              2.580
 Vibration     2          0.783              1.427              0.892
 Vibration     3          0.795              1.394              0.843
 Vibration     4          0.816              1.342              0.771
 Vibration     5          0.873              1.210              0.614
 Vibration     6          0.904              1.142              0.546

 Optimization completed.
    -- Stationary point found.
 Normal termination of Gaussian 09 at Fri Aug 27 21:29:08 2021.
