 Gaussian 09, Revision E.01,
 Gaussian 09:  EM64L-G09RevE.01 30-Nov-2015

 --------------------
 #p opt freq BP86/gen
 --------------------

 ---------------------
 4PY_BP86_PC2_OPT_FREQ
 ---------------------
 Symbolic Z-matrix:
 Charge =  0 Multiplicity = 1

 SCF Done:  E(RB-P86) =  -323.645786488     A.U. after   18 cycles
 SCF Done:  E(RB-P86) =  -323.645983580     A.U. after    9 cycles
 SCF Done:  E(RB-P86) =  -323.645989100     A.U. after    8 cycles
 SCF Done:  E(RB-P86) =  -323.645989369     A.U. after    8 cycles
 SCF Done:  E(RB-P86) =  -323.645989910     A.U. after    7 cycles
 Optimization completed.
    -- Stationary point found.
 Normal termination of Gaussian 09 at Fri Aug 27 21:12:47 2021.

 -----------------------------------------------------------------
 #P Geom=AllCheck Guess=TCheck SCRF=Check GenChk RBP86/ChkBas Freq
 -----------------------------------------------------------------

 Structure from the checkpoint file:  "4PY_BP86_PC2_OPT_FREQ.chk"
 ---------------------
 4PY_BP86_PC2_OPT_FREQ
 ---------------------
 Charge =  0 Multiplicity = 1

                         Standard orientation:
 ---------------------------------------------------------------------
 Center     Atomic      Atomic             Coordinates (Angstroms)
 Number     Number       Type             X           Y           Z
 ---------------------------------------------------------------------
      1          6           0        0.000006    1.052445    1.195162
      2          6           0        0.000006   -0.307596    1.228123
      3          6           0       -0.000081   -1.112359   -0.000000
      4          6           0        0.000006   -0.307596   -1.228123
      5          6           0        0.000006    1.052445   -1.195162
      6          7           0        0.000027    1.732761    0.000000
      7          1           0        0.000026    1.674149    2.090213
      8          1           0        0.000037   -0.829416    2.184243
      9          1           0        0.000037   -0.829416   -2.184243
     10          1           0        0.000026    1.674149   -2.090213
     11          8           0        0.000022   -2.353539   -0.000000
     12          1           0       -0.000148    2.745480    0.000000
 ---------------------------------------------------------------------

 SCF Done:  E(RB-P86) =  -323.645989910     A.U. after    1 cycles

 The electronic state is 1-A'.
 Alpha  occ. eigenvalues --  -18.71484 -14.08197  -9.96627  -9.96626  -9.96099
 Alpha  occ. eigenvalues --   -9.90950  -9.90950  -0.92356  -0.90840  -0.72387
 Alpha  occ. eigenvalues --   -0.72317  -0.59611  -0.57156  -0.54323  -0.46181
 Alpha  occ. eigenvalues --   -0.43461  -0.41456  -0.40126  -0.39930  -0.34015
 Alpha  occ. eigenvalues --   -0.33798  -0.32883  -0.26574  -0.20742  -0.18694
 Alpha virt. eigenvalues --   -0.06204  -0.06103  -0.02790   0.01960   0.03098
 Alpha virt. eigenvalues --    0.06260   0.06290   0.07686   0.09956   0.12630
 Alpha virt. eigenvalues --    0.13326   0.13513   0.13818   0.16346   0.16877

 Mulliken charges:
               1
     1  C    0.129188
     2  C   -0.164459
     3  C    0.345439
     4  C   -0.164459
     5  C    0.129188
     6  N   -0.265815
     7  H    0.073411
     8  H    0.066052
     9  H    0.066052
    10  H    0.073411
    11  O   -0.453967
    12  H    0.165959
 Sum of Mulliken charges =  -0.00000

 Dipole moment (field-independent basis, Debye):
    X=             -0.0003    Y=              6.9147    Z=              0.0000  Tot=              6.9147
 Quadrupole moment (field-independent basis, Debye-Ang):
   XX=            -43.2910   YY=            -42.4976   ZZ=            -34.8220
   XY=             -0.0006   XZ=             -0.0000   YZ=              0.0000

  Exact polarizability:  39.166  -0.000  94.726   0.000  -0.000  74.150
 Approx polarizability:  64.980  -0.001 235.935   0.000   0.000 127.699

                      1                      2                      3
                     A'                     A"                     A'
 Frequencies --    146.2676               404.5665               411.7373
 Red. masses --      5.3524                 3.2340                 2.3782
 Frc consts  --      0.0675                 0.3119                 0.2375
 IR Inten    --      0.5053                 0.0000                49.0873

                      4                      5                      6
                     A"                     A'                     A'
 Frequencies --    440.0098               505.7720               517.7185
 Red. masses --      5.8299                 8.2880                 1.2370
 Frc consts  --      0.6650                 1.2491                 0.1953
 IR Inten    --      4.0520                 7.3889                30.2214

                      7                      8                      9
                     A"                     A'                     A"
 Frequencies --    604.9514               695.5161               770.1845
 Red. masses --      6.6573                 2.3857                 1.2692
 Frc consts  --      1.4355                 0.6799                 0.4436
 IR Inten    --      1.8149                26.2691                 0.0000

                     10                     11                     12
                     A'                     A'                     A'
 Frequencies --    790.8496               824.0066               914.8149
 Red. masses --      4.8289                 2.3548                 1.2031
 Frc consts  --      1.7794                 0.9420                 0.5932
 IR Inten    --      3.4962                64.1902                 0.0190

                     13                     14                     15
                     A"                     A'                     A'
 Frequencies --    916.1787               975.4223               992.2864
 Red. masses --      1.2783                 4.8462                 2.4002
 Frc consts  --      0.6322                 2.7167                 1.3924
 IR Inten    --      0.0000                47.0154                 0.5007

                     16                     17                     18
                     A"                     A'                     A"
 Frequencies --   1043.7189              1165.8195              1209.4567
 Red. masses --      1.7353                 1.2025                 2.0367
 Frc consts  --      1.1138                 0.9629                 1.7553
 IR Inten    --      3.9919                13.3327                 3.3794

                     19                     20                     21
                     A"                     A"                     A'
 Frequencies --   1222.4863              1365.5096              1387.5474
 Red. masses --      1.2082                 1.7819                 1.8111
 Frc consts  --      1.0638                 1.9575                 2.0545
 IR Inten    --      5.2617                 0.1101                 0.2383

                     22                     23                     24
                     A"                     A"                     A'
 Frequencies --   1482.1500              1568.4077              1602.3117
 Red. masses --      4.0899                 2.8842                 6.8657
 Frc consts  --      5.2935                 4.1802                10.3856
 IR Inten    --     78.2677                 3.9502                63.9475

                     25                     26                     27
                     A'                     A"                     A'
 Frequencies --   1645.1378              3114.7748              3115.4899
 Red. masses --      6.7827                 1.0881                 1.0885
 Frc consts  --     10.8157                 6.2195                 6.2251
 IR Inten    --    413.0216                 3.5162                 6.5142

                     28                     29                     30
                     A"                     A'                     A'
 Frequencies --   3135.2968              3136.7088              3559.7818
 Red. masses --      1.0956                 1.0964                 1.0785
 Frc consts  --      6.3456                 6.3558                 8.0519
 IR Inten    --      7.1969                 0.5376                85.9868

 - Thermochemistry -
 -------------------
 Temperature   298.150 Kelvin.  Pressure   1.00000 Atm.
 Atom     1 has atomic number  6 and mass  12.00000

 Molecular mass:    95.03711 amu.
 Principal axes and moments of inertia in atomic units:
                           1         2         3
     Eigenvalues --   317.48055 674.12636 991.60691
           X            0.00000   0.00000   1.00000
           Y            1.00000   0.00000  -0.00000
           Z            0.00000   1.00000   0.00000
 This molecule is an asymmetric top.
 Rotational symmetry number  1.
 Rotational temperatures (Kelvin)      0.27282     0.12848     0.08735
 Rotational constants (GHZ):           5.68457     2.67716     1.82002
 Zero-point vibrational energy     237248.7 (Joules/Mol)
                                   56.70379 (Kcal/Mol)
 Warning -- explicit consideration of   7 degrees of freedom as
           vibrations may cause significant error
 Vibrational temperatures:    210.45   582.08   592.40   633.08   727.69
          (Kelvin)            744.88   870.39  1000.69  1108.12  1137.85
                             1185.56  1316.21  1318.18  1403.41  1427.68
                             1501.68  1677.35  1740.14  1758.88  1964.66
                             1996.37  2132.48  2256.59  2305.37  2366.98
                             4481.46  4482.49  4510.99  4513.02  5121.73

 Zero-point correction=                           0.090363 (Hartree/Particle)
 Thermal correction to Energy=                    0.095958
 Thermal correction to Enthalpy=                  0.096902
 Thermal correction to Gibbs Free Energy=         0.061161
 Sum of electronic and zero-point Energies=           -323.555627
 Sum of electronic and thermal Energies=              -323.550032
 Sum of electronic and thermal Enthalpies=            -323.549088
 Sum of electronic and thermal Free Energies=         -323.584829

                     E (Thermal)             CV                S
                      KCal/Mol        Cal/Mol-Kelvin    Cal/Mol-Kelvin
 Total                   60.214             21.606             75.222
 Electronic               0.000              0.000              0.000
 Translational            0.889              2.981             39.566
 Rotational               0.889              2.981             26.853
 Vibrational             58.437             15.645              8.803
 Vibration     1          0.617              1.907              2.720
 Vibration     2          0.770              1.460              0.946
 Vibration     3          0.776              1.445              0.920
 Vibration     4          0.800              1.383              0.827
 Vibration     5          0.861              1.237              0.644
 Vibration     6          0.873              1.211              0.615
 Vibration     7          0.963              1.021              0.441

 Optimization completed.
    -- Stationary point found.
 Normal termination of Gaussian 09 at Fri Aug 27 21:13:21 2021.
