 Gaussian 09, Revision E.01,
 Gaussian 09:  EM64L-G09RevE.01 30-Nov-2015

 --------------------
 #p opt freq wB97/gen
 --------------------

 ---------------------
 4PY_wB97_PC2_OPT_FREQ
 ---------------------
 Symbolic Z-matrix:
 Charge =  0 Multiplicity = 1

 SCF Done:  E(RwB97) =  -323.569013545     A.U. after   16 cycles
 SCF Done:  E(RwB97) =  -323.569533632     A.U. after   11 cycles
 SCF Done:  E(RwB97) =  -323.569546847     A.U. after    9 cycles
 SCF Done:  E(RwB97) =  -323.569547252     A.U. after    9 cycles
 SCF Done:  E(RwB97) =  -323.569547611     A.U. after    8 cycles
 Optimization completed.
    -- Stationary point found.
 Normal termination of Gaussian 09 at Fri Aug 27 21:26:39 2021.

 -----------------------------------------------------------------
 #P Geom=AllCheck Guess=TCheck SCRF=Check GenChk RwB97/ChkBas Freq
 -----------------------------------------------------------------

 Structure from the checkpoint file:  "4PY_wB97_PC2_OPT_FREQ.chk"
 ---------------------
 4PY_wB97_PC2_OPT_FREQ
 ---------------------
 Charge =  0 Multiplicity = 1

                         Standard orientation:
 ---------------------------------------------------------------------
 Center     Atomic      Atomic             Coordinates (Angstroms)
 Number     Number       Type             X           Y           Z
 ---------------------------------------------------------------------
      1          6           0       -0.000011    1.040214    1.187091
      2          6           0       -0.000011   -0.304536    1.228718
      3          6           0       -0.000247   -1.105267   -0.000000
      4          6           0       -0.000011   -0.304536   -1.228718
      5          6           0       -0.000011    1.040214   -1.187091
      6          7           0       -0.000018    1.721303    0.000000
      7          1           0        0.000046    1.655347    2.078888
      8          1           0        0.000084   -0.824680    2.177425
      9          1           0        0.000084   -0.824680   -2.177425
     10          1           0        0.000046    1.655347   -2.078888
     11          8           0        0.000222   -2.328893   -0.000000
     12          1           0       -0.000168    2.724154    0.000000
 ---------------------------------------------------------------------

 SCF Done:  E(RwB97) =  -323.569547611     A.U. after    1 cycles

 The electronic state is 1-A'.
 Alpha  occ. eigenvalues --  -18.93955 -14.30701 -10.20245 -10.20131 -10.20129
 Alpha  occ. eigenvalues --  -10.13476 -10.13475  -1.15203  -1.13596  -0.94080
 Alpha  occ. eigenvalues --   -0.93922  -0.78997  -0.76207  -0.72508  -0.63564
 Alpha  occ. eigenvalues --   -0.60580  -0.58119  -0.57412  -0.56594  -0.50448
 Alpha  occ. eigenvalues --   -0.49739  -0.49189  -0.40083  -0.34341  -0.32750
 Alpha virt. eigenvalues --    0.06352   0.06743   0.07207   0.10854   0.12691
 Alpha virt. eigenvalues --    0.14985   0.15577   0.20790   0.21966   0.23687
 Alpha virt. eigenvalues --    0.24479   0.24738   0.25425   0.27390   0.27907

 Mulliken charges:
               1
     1  C    0.190088
     2  C   -0.138604
     3  C    0.383002
     4  C   -0.138604
     5  C    0.190088
     6  N   -0.329083
     7  H    0.046536
     8  H    0.049746
     9  H    0.049746
    10  H    0.046536
    11  O   -0.507197
    12  H    0.157746
 Sum of Mulliken charges =  -0.00000

 Dipole moment (field-independent basis, Debye):
    X=             -0.0008    Y=              7.0220    Z=              0.0000  Tot=              7.0220
 Quadrupole moment (field-independent basis, Debye-Ang):
   XX=            -43.3251   YY=            -42.6591   ZZ=            -34.6119
   XY=              0.0008   XZ=             -0.0000   YZ=             -0.0000

  Exact polarizability:  38.241  -0.002  91.110  -0.000   0.000  66.424
 Approx polarizability:  43.105  -0.004  99.059   0.000   0.000  64.682

                      1                      2                      3
                     A'                     A"                     A'
 Frequencies --    152.8224               425.3739               425.4883
 Red. masses --      5.3151                 3.3192                 2.2008
 Frc consts  --      0.0731                 0.3539                 0.2348
 IR Inten    --      0.8045                 0.0000                64.9784

                      4                      5                      6
                     A"                     A'                     A'
 Frequencies --    462.3067               522.7862               533.9586
 Red. masses --      5.8147                 8.3048                 1.2655
 Frc consts  --      0.7322                 1.3373                 0.2126
 IR Inten    --      5.8954                 7.5257                32.4601

                      7                      8                      9
                     A"                     A'                     A"
 Frequencies --    628.8758               736.8483               813.3753
 Red. masses --      6.6573                 2.2766                 1.2389
 Frc consts  --      1.5512                 0.7283                 0.4829
 IR Inten    --      1.2869                17.2648                 0.0000

                     10                     11                     12
                     A'                     A'                     A"
 Frequencies --    824.8906               869.9278               985.2083
 Red. masses --      4.8307                 2.4764                 1.2964
 Frc consts  --      1.9366                 1.1042                 0.7414
 IR Inten    --      7.7811                79.9893                 0.0000

                     13                     14                     15
                     A'                     A'                     A'
 Frequencies --    986.5724              1006.6339              1034.1091
 Red. masses --      1.2272                 5.1069                 2.2093
 Frc consts  --      0.7037                 3.0489                 1.3920
 IR Inten    --      0.4158                63.9250                 5.8088

                     16                     17                     18
                     A"                     A'                     A"
 Frequencies --   1091.0472              1203.7138              1254.9342
 Red. masses --      1.6482                 1.1858                 1.4155
 Frc consts  --      1.1560                 1.0123                 1.3134
 IR Inten    --      1.2814                21.6266                 1.4245

                     19                     20                     21
                     A"                     A"                     A'
 Frequencies --   1273.9482              1433.2041              1446.9412
 Red. masses --      1.5138                 1.7898                 1.8365
 Frc consts  --      1.4475                 2.1660                 2.2654
 IR Inten    --     11.8387                 0.1187                 0.0146

                     22                     23                     24
                     A"                     A"                     A'
 Frequencies --   1571.4611              1662.7905              1719.4281
 Red. masses --      4.0205                 3.7121                 6.4280
 Frc consts  --      5.8497                 6.0471                11.1968
 IR Inten    --    143.6974                 0.4154                 1.2425

                     25                     26                     27
                     A'                     A"                     A'
 Frequencies --   1764.4569              3235.0698              3235.9617
 Red. masses --      8.8456                 1.0914                 1.0920
 Frc consts  --     16.2256                 6.7300                 6.7370
 IR Inten    --    726.2373                 3.5727                 2.5875

                     28                     29                     30
                     A"                     A'                     A'
 Frequencies --   3264.7788              3265.8961              3721.8860
 Red. masses --      1.0970                 1.0977                 1.0794
 Frc consts  --      6.8891                 6.8985                 8.8093
 IR Inten    --      2.0392                 0.1345               120.6887

 - Thermochemistry -
 -------------------
 Temperature   298.150 Kelvin.  Pressure   1.00000 Atm.
 Atom     1 has atomic number  6 and mass  12.00000

 Molecular mass:    95.03711 amu.
 Principal axes and moments of inertia in atomic units:
                           1         2         3
     Eigenvalues --   315.40412 661.61678 977.02090
           X           -0.00003   0.00000   1.00000
           Y            1.00000   0.00000   0.00003
           Z            0.00000   1.00000   0.00000
 This molecule is an asymmetric top.
 Rotational symmetry number  1.
 Rotational temperatures (Kelvin)      0.27461     0.13091     0.08865
 Rotational constants (GHZ):           5.72200     2.72777     1.84719
 Zero-point vibrational energy     248552.3 (Joules/Mol)
                                   59.40542 (Kcal/Mol)
 Warning -- explicit consideration of   6 degrees of freedom as
           vibrations may cause significant error
 Vibrational temperatures:    219.88   612.02   612.18   665.16   752.17
          (Kelvin)            768.25   904.81  1060.16  1170.26  1186.83
                             1251.63  1417.49  1419.46  1448.32  1487.85
                             1569.77  1731.87  1805.57  1832.93  2062.06
                             2081.82  2260.98  2392.38  2473.87  2538.66
                             4654.54  4655.82  4697.28  4698.89  5354.96

 Zero-point correction=                           0.094669 (Hartree/Particle)
 Thermal correction to Energy=                    0.100058
 Thermal correction to Enthalpy=                  0.101003
 Thermal correction to Gibbs Free Energy=         0.065601
 Sum of electronic and zero-point Energies=           -323.474879
 Sum of electronic and thermal Energies=              -323.469489
 Sum of electronic and thermal Enthalpies=            -323.468545
 Sum of electronic and thermal Free Energies=         -323.503946

                     E (Thermal)             CV                S
                      KCal/Mol        Cal/Mol-Kelvin    Cal/Mol-Kelvin
 Total                   62.788             20.581             74.508
 Electronic               0.000              0.000              0.000
 Translational            0.889              2.981             39.566
 Rotational               0.889              2.981             26.814
 Vibrational             61.010             14.619              8.128
 Vibration     1          0.619              1.900              2.637
 Vibration     2          0.787              1.415              0.874
 Vibration     3          0.787              1.415              0.874
 Vibration     4          0.820              1.334              0.759
 Vibration     5          0.878              1.200              0.604
 Vibration     6          0.889              1.175              0.578

 Optimization completed.
    -- Stationary point found.
 Normal termination of Gaussian 09 at Fri Aug 27 21:27:22 2021.
