 Gaussian 09, Revision E.01,
 Gaussian 09:  EM64L-G09RevE.01 30-Nov-2015

 -----------------------
 #p opt freq LC-wPBE/gen
 -----------------------

 ------------------------
 4PY_LC-wPBE_PC2_OPT_FREQ
 ------------------------
 Symbolic Z-matrix:
 Charge =  0 Multiplicity = 1

 SCF Done:  E(RLC-wPBE) =  -323.412800626     A.U. after   15 cycles
 SCF Done:  E(RLC-wPBE) =  -323.414205317     A.U. after   12 cycles
 SCF Done:  E(RLC-wPBE) =  -323.414233225     A.U. after    9 cycles
 SCF Done:  E(RLC-wPBE) =  -323.414234059     A.U. after    8 cycles
 SCF Done:  E(RLC-wPBE) =  -323.414233946     A.U. after    8 cycles
 Optimization completed.
    -- Stationary point found.
 Normal termination of Gaussian 09 at Fri Aug 27 21:24:43 2021.

 --------------------------------------------------------------------
 #P Geom=AllCheck Guess=TCheck SCRF=Check GenChk RLC-wPBE/ChkBas Freq
 --------------------------------------------------------------------

 Structure from the checkpoint file:  "4PY_LC-wPBE_PC2_OPT_FREQ.chk"
 ------------------------
 4PY_LC-wPBE_PC2_OPT_FREQ
 ------------------------
 Charge =  0 Multiplicity = 1

                         Standard orientation:
 ---------------------------------------------------------------------
 Center     Atomic      Atomic             Coordinates (Angstroms)
 Number     Number       Type             X           Y           Z
 ---------------------------------------------------------------------
      1          6           0       -0.000033    1.035889    1.180935
      2          6           0       -0.000033   -0.303026    1.221885
      3          6           0       -0.000631   -1.100517   -0.000000
      4          6           0       -0.000033   -0.303026   -1.221885
      5          6           0       -0.000033    1.035889   -1.180935
      6          7           0       -0.000111    1.714753    0.000000
      7          1           0        0.000128    1.647626    2.073628
      8          1           0        0.000226   -0.822365    2.169502
      9          1           0        0.000226   -0.822365   -2.169502
     10          1           0        0.000128    1.647626   -2.073628
     11          8           0        0.000603   -2.320349   -0.000000
     12          1           0       -0.000188    2.717745    0.000000
 ---------------------------------------------------------------------

 SCF Done:  E(RLC-wPBE) =  -323.414233946     A.U. after    1 cycles

 The electronic state is 1-A'.
 Alpha  occ. eigenvalues --  -18.90680 -14.27863 -10.17573 -10.17523 -10.17521
 Alpha  occ. eigenvalues --  -10.10894 -10.10893  -1.15251  -1.13459  -0.94059
 Alpha  occ. eigenvalues --   -0.94037  -0.79258  -0.76280  -0.73088  -0.64236
 Alpha  occ. eigenvalues --   -0.60634  -0.58461  -0.58164  -0.56985  -0.50777
 Alpha  occ. eigenvalues --   -0.50070  -0.49815  -0.40704  -0.34574  -0.33220
 Alpha virt. eigenvalues --    0.05964   0.06075   0.06408   0.09648   0.11710
 Alpha virt. eigenvalues --    0.13836   0.14570   0.20936   0.21571   0.23044
 Alpha virt. eigenvalues --    0.24307   0.24644   0.25329   0.27104   0.27737

 Mulliken charges:
               1
     1  C    0.178595
     2  C   -0.193090
     3  C    0.370469
     4  C   -0.193090
     5  C    0.178595
     6  N   -0.286817
     7  H    0.068251
     8  H    0.055607
     9  H    0.055607
    10  H    0.068251
    11  O   -0.458875
    12  H    0.156497
 Sum of Mulliken charges =  -0.00000

 Dipole moment (field-independent basis, Debye):
    X=             -0.0017    Y=              7.0094    Z=              0.0000  Tot=              7.0094
 Quadrupole moment (field-independent basis, Debye-Ang):
   XX=            -42.8678   YY=            -42.1306   ZZ=            -34.1578
   XY=              0.0037   XZ=              0.0000   YZ=             -0.0000

  Exact polarizability:  37.166  -0.005  89.415   0.000   0.000  65.227
 Approx polarizability:  41.958  -0.010  98.106  -0.000   0.000  63.907

                      1                      2                      3
                     A'                     A"                     A'
 Frequencies --    151.7110               426.1627               439.9954
 Red. masses --      5.2478                 3.2687                 2.3267
 Frc consts  --      0.0712                 0.3498                 0.2654
 IR Inten    --      0.7652                 0.0000                55.9967

                      4                      5                      6
                     A"                     A'                     A'
 Frequencies --    464.3674               521.9790               548.9273
 Red. masses --      5.7649                 8.2701                 1.2236
 Frc consts  --      0.7324                 1.3276                 0.2172
 IR Inten    --      5.7056                 7.7915                44.1375

                      7                      8                      9
                     A"                     A'                     A"
 Frequencies --    630.2577               742.5779               819.4887
 Red. masses --      6.6575                 2.3138                 1.2455
 Frc consts  --      1.5581                 0.7517                 0.4928
 IR Inten    --      1.1937                15.7004                 0.0000

                     10                     11                     12
                     A'                     A'                     A"
 Frequencies --    833.1253               878.1435               995.0889
 Red. masses --      4.7878                 2.3966                 1.2982
 Frc consts  --      1.9580                 1.0889                 0.7574
 IR Inten    --      6.6567                78.9634                 0.0000

                     13                     14                     15
                     A'                     A'                     A'
 Frequencies --    995.2967              1012.5578              1042.0225
 Red. masses --      1.2445                 5.2980                 2.1181
 Frc consts  --      0.7264                 3.2004                 1.3550
 IR Inten    --      0.0118                59.3677                10.4322

                     16                     17                     18
                     A"                     A'                     A"
 Frequencies --   1097.4690              1210.0220              1262.8393
 Red. masses --      1.5993                 1.1911                 1.4131
 Frc consts  --      1.1349                 1.0275                 1.3278
 IR Inten    --      1.7756                21.3477                 1.0464

                     19                     20                     21
                     A"                     A"                     A'
 Frequencies --   1282.2911              1440.4670              1455.9363
 Red. masses --      1.5214                 1.7812                 1.8599
 Frc consts  --      1.4739                 2.1776                 2.3228
 IR Inten    --     10.4173                 0.5761                 0.2211

                     22                     23                     24
                     A"                     A"                     A'
 Frequencies --   1582.3166              1675.5421              1735.0516
 Red. masses --      4.0506                 3.9937                 6.5079
 Frc consts  --      5.9753                 6.6059                11.5430
 IR Inten    --    142.8990                 0.1342                 2.1275

                     25                     26                     27
                     A'                     A"                     A'
 Frequencies --   1779.8884              3239.4322              3240.2356
 Red. masses --      9.0256                 1.0910                 1.0916
 Frc consts  --     16.8465                 6.7452                 6.7527
 IR Inten    --    713.4999                 2.6703                 1.9140

                     28                     29                     30
                     A"                     A'                     A'
 Frequencies --   3265.6784              3266.7170              3720.7763
 Red. masses --      1.0974                 1.0982                 1.0793
 Frc consts  --      6.8955                 6.9051                 8.8032
 IR Inten    --      1.0664                 0.2789               127.5054

 - Thermochemistry -
 -------------------
 Temperature   298.150 Kelvin.  Pressure   1.00000 Atm.
 Atom     1 has atomic number  6 and mass  12.00000

 Molecular mass:    95.03711 amu.
 Principal axes and moments of inertia in atomic units:
                           1         2         3
     Eigenvalues --   312.31431 656.59409 968.90834
           X           -0.00010   0.00000   1.00000
           Y            1.00000   0.00000   0.00010
           Z           -0.00000   1.00000  -0.00000
 This molecule is an asymmetric top.
 Rotational symmetry number  1.
 Rotational temperatures (Kelvin)      0.27733     0.13191     0.08939
 Rotational constants (GHZ):           5.77861     2.74864     1.86265
 Zero-point vibrational energy     249758.5 (Joules/Mol)
                                   59.69372 (Kcal/Mol)
 Warning -- explicit consideration of   6 degrees of freedom as
           vibrations may cause significant error
 Vibrational temperatures:    218.28   613.15   633.05   668.12   751.01
          (Kelvin)            789.78   906.80  1068.40  1179.06  1198.68
                             1263.45  1431.71  1432.01  1456.84  1499.24
                             1579.01  1740.95  1816.94  1844.93  2072.51
                             2094.76  2276.60  2410.73  2496.35  2560.86
                             4660.81  4661.97  4698.58  4700.07  5353.36

 Zero-point correction=                           0.095128 (Hartree/Particle)
 Thermal correction to Energy=                    0.100480
 Thermal correction to Enthalpy=                  0.101424
 Thermal correction to Gibbs Free Energy=         0.066089
 Sum of electronic and zero-point Energies=           -323.319106
 Sum of electronic and thermal Energies=              -323.313754
 Sum of electronic and thermal Enthalpies=            -323.312810
 Sum of electronic and thermal Free Energies=         -323.348145

                     E (Thermal)             CV                S
                      KCal/Mol        Cal/Mol-Kelvin    Cal/Mol-Kelvin
 Total                   63.052             20.399             74.368
 Electronic               0.000              0.000              0.000
 Translational            0.889              2.981             39.566
 Rotational               0.889              2.981             26.788
 Vibrational             61.274             14.437              8.014
 Vibration     1          0.619              1.901              2.651
 Vibration     2          0.788              1.413              0.871
 Vibration     3          0.800              1.383              0.827
 Vibration     4          0.822              1.329              0.754
 Vibration     5          0.877              1.201              0.605
 Vibration     6          0.904              1.142              0.546

 Optimization completed.
    -- Stationary point found.
 Normal termination of Gaussian 09 at Fri Aug 27 21:25:26 2021.
