 Gaussian 09, Revision E.01,
 Gaussian 09:  EM64L-G09RevE.01 30-Nov-2015

 --------------------
 #p opt freq BLYP/gen
 --------------------

 ---------------------
 4PY_BLYP_PC2_OPT_FREQ
 ---------------------
 Symbolic Z-matrix:
 Charge =  0 Multiplicity = 1

 SCF Done:  E(RB-LYP) =  -323.545775991     A.U. after   18 cycles
 SCF Done:  E(RB-LYP) =  -323.546068058     A.U. after   13 cycles
 SCF Done:  E(RB-LYP) =  -323.546074879     A.U. after    8 cycles
 SCF Done:  E(RB-LYP) =  -323.546075589     A.U. after    8 cycles
 SCF Done:  E(RB-LYP) =  -323.546076084     A.U. after    7 cycles
 Optimization completed.
    -- Stationary point found.
 Normal termination of Gaussian 09 at Fri Aug 27 21:14:24 2021.

 -----------------------------------------------------------------
 #P Geom=AllCheck Guess=TCheck SCRF=Check GenChk RBLYP/ChkBas Freq
 -----------------------------------------------------------------

 Structure from the checkpoint file:  "4PY_BLYP_PC2_OPT_FREQ.chk"
 ---------------------
 4PY_BLYP_PC2_OPT_FREQ
 ---------------------
 Charge =  0 Multiplicity = 1

                         Standard orientation:
 ---------------------------------------------------------------------
 Center     Atomic      Atomic             Coordinates (Angstroms)
 Number     Number       Type             X           Y           Z
 ---------------------------------------------------------------------
      1          6           0       -0.000002    1.053221    1.199770
      2          6           0       -0.000002   -0.307680    1.232073
      3          6           0       -0.000081   -1.113241   -0.000000
      4          6           0       -0.000002   -0.307680   -1.232073
      5          6           0       -0.000002    1.053221   -1.199770
      6          7           0        0.000024    1.736029    0.000000
      7          1           0        0.000014    1.673912    2.092131
      8          1           0        0.000026   -0.829949    2.184882
      9          1           0        0.000026   -0.829949   -2.184882
     10          1           0        0.000014    1.673912   -2.092131
     11          8           0        0.000053   -2.356873   -0.000000
     12          1           0       -0.000147    2.747815    0.000000
 ---------------------------------------------------------------------

 SCF Done:  E(RB-LYP) =  -323.546076084     A.U. after    1 cycles

 The electronic state is 1-A'.
 Alpha  occ. eigenvalues --  -18.71701 -14.08348  -9.97409  -9.97409  -9.97027
 Alpha  occ. eigenvalues --   -9.91712  -9.91712  -0.90888  -0.89541  -0.71201
 Alpha  occ. eigenvalues --   -0.71148  -0.58515  -0.56177  -0.53313  -0.45215
 Alpha  occ. eigenvalues --   -0.42767  -0.40822  -0.39390  -0.38748  -0.33375
 Alpha  occ. eigenvalues --   -0.33029  -0.31843  -0.25628  -0.19866  -0.18001
 Alpha virt. eigenvalues --   -0.05436  -0.05415  -0.03485   0.01106   0.02345
 Alpha virt. eigenvalues --    0.05476   0.05597   0.08035   0.10011   0.12757
 Alpha virt. eigenvalues --    0.12831   0.12955   0.13600   0.16282   0.16341

 Mulliken charges:
               1
     1  C    0.115275
     2  C   -0.132657
     3  C    0.317125
     4  C   -0.132657
     5  C    0.115275
     6  N   -0.225781
     7  H    0.059952
     8  H    0.058261
     9  H    0.058261
    10  H    0.059952
    11  O   -0.442589
    12  H    0.149583
 Sum of Mulliken charges =  -0.00000

 Dipole moment (field-independent basis, Debye):
    X=             -0.0003    Y=              6.9015    Z=              0.0000  Tot=              6.9015
 Quadrupole moment (field-independent basis, Debye-Ang):
   XX=            -43.5063   YY=            -43.2279   ZZ=            -35.3900
   XY=             -0.0004   XZ=             -0.0000   YZ=              0.0000

  Exact polarizability:  39.263  -0.000  95.184   0.000  -0.000  74.616
 Approx polarizability:  66.666  -0.002 239.101  -0.000  -0.000 129.164

                      1                      2                      3
                     A'                     A"                     A'
 Frequencies --    149.5279               407.8405               409.8119
 Red. masses --      5.3631                 3.2145                 2.3343
 Frc consts  --      0.0706                 0.3150                 0.2310
 IR Inten    --      0.6714                 0.0000                51.4036

                      4                      5                      6
                     A"                     A'                     A'
 Frequencies --    443.6144               509.4350               513.4728
 Red. masses --      5.9059                 8.4041                 1.2549
 Frc consts  --      0.6848                 1.2850                 0.1949
 IR Inten    --      3.9833                 7.8726                28.4477

                      7                      8                      9
                     A"                     A'                     A"
 Frequencies --    608.5372               695.5551               773.0920
 Red. masses --      6.6833                 2.3745                 1.2672
 Frc consts  --      1.4582                 0.6768                 0.4462
 IR Inten    --      2.0655                24.3361                 0.0000

                     10                     11                     12
                     A'                     A'                     A'
 Frequencies --    782.6281               825.8788               920.2174
 Red. masses --      4.9650                 2.3094                 1.2122
 Frc consts  --      1.7918                 0.9281                 0.6048
 IR Inten    --      4.5388                63.1361                 0.0745

                     13                     14                     15
                     A"                     A'                     A'
 Frequencies --    922.6963               968.8821               992.1950
 Red. masses --      1.2818                 3.6886                 3.0975
 Frc consts  --      0.6430                 2.0401                 1.7966
 IR Inten    --      0.0000                46.8694                 3.1379

                     16                     17                     18
                     A"                     A'                     A"
 Frequencies --   1040.2689              1173.4691              1208.8398
 Red. masses --      1.9460                 1.2015                 2.0695
 Frc consts  --      1.2407                 0.9748                 1.7817
 IR Inten    --      3.0307                14.7829                 3.8053

                     19                     20                     21
                     A"                     A"                     A'
 Frequencies --   1223.9330              1368.2582              1393.6049
 Red. masses --      1.2300                 1.6941                 1.7722
 Frc consts  --      1.0856                 1.8687                 2.0279
 IR Inten    --      6.9264                 0.1516                 0.6751

                     22                     23                     24
                     A"                     A"                     A'
 Frequencies --   1464.5495              1565.8618              1584.0905
 Red. masses --      3.8784                 2.5536                 6.8219
 Frc consts  --      4.9013                 3.6889                10.0859
 IR Inten    --     74.7409                 6.1650               112.4770

                     25                     26                     27
                     A'                     A"                     A'
 Frequencies --   1627.3487              3115.2479              3115.9241
 Red. masses --      5.8987                 1.0879                 1.0885
 Frc consts  --      9.2038                 6.2206                 6.2267
 IR Inten    --    354.8415                 3.8410                 7.6018

                     28                     29                     30
                     A"                     A'                     A'
 Frequencies --   3135.0257              3136.5568              3547.8184
 Red. masses --      1.0950                 1.0959                 1.0784
 Frc consts  --      6.3411                 6.3520                 7.9976
 IR Inten    --      9.3933                 0.4610                81.1061

 - Thermochemistry -
 -------------------
 Temperature   298.150 Kelvin.  Pressure   1.00000 Atm.
 Atom     1 has atomic number  6 and mass  12.00000

 Molecular mass:    95.03711 amu.
 Principal axes and moments of inertia in atomic units:
                           1         2         3
     Eigenvalues --   319.33714 675.86557 995.20271
           X           -0.00000   0.00000   1.00000
           Y            1.00000   0.00000   0.00000
           Z            0.00000   1.00000   0.00000
 This molecule is an asymmetric top.
 Rotational symmetry number  1.
 Rotational temperatures (Kelvin)      0.27123     0.12815     0.08703
 Rotational constants (GHZ):           5.65152     2.67027     1.81344
 Zero-point vibrational energy     237005.2 (Joules/Mol)
                                   56.64561 (Kcal/Mol)
 Warning -- explicit consideration of   7 degrees of freedom as
           vibrations may cause significant error
 Vibrational temperatures:    215.14   586.79   589.63   638.26   732.96
          (Kelvin)            738.77   875.55  1000.75  1112.31  1126.03
                             1188.25  1323.99  1327.55  1394.00  1427.55
                             1496.71  1688.36  1739.25  1760.96  1968.62
                             2005.08  2107.16  2252.92  2279.15  2341.39
                             4482.14  4483.11  4510.60  4512.80  5104.51

 Zero-point correction=                           0.090271 (Hartree/Particle)
 Thermal correction to Energy=                    0.095853
 Thermal correction to Enthalpy=                  0.096798
 Thermal correction to Gibbs Free Energy=         0.061081
 Sum of electronic and zero-point Energies=           -323.455806
 Sum of electronic and thermal Energies=              -323.450223
 Sum of electronic and thermal Enthalpies=            -323.449278
 Sum of electronic and thermal Free Energies=         -323.484995

                     E (Thermal)             CV                S
                      KCal/Mol        Cal/Mol-Kelvin    Cal/Mol-Kelvin
 Total                   60.149             21.590             75.172
 Electronic               0.000              0.000              0.000
 Translational            0.889              2.981             39.566
 Rotational               0.889              2.981             26.865
 Vibrational             58.371             15.628              8.740
 Vibration     1          0.618              1.903              2.678
 Vibration     2          0.772              1.453              0.934
 Vibration     3          0.774              1.449              0.927
 Vibration     4          0.803              1.375              0.815
 Vibration     5          0.865              1.229              0.635
 Vibration     6          0.869              1.220              0.625
 Vibration     7          0.967              1.014              0.435

 Optimization completed.
    -- Stationary point found.
 Normal termination of Gaussian 09 at Fri Aug 27 21:14:57 2021.
