 Gaussian 09, Revision E.01,
 Gaussian 09:  EM64L-G09RevE.01 30-Nov-2015

 --------------------
 #p opt freq M06L/gen
 --------------------

 ---------------------
 4PY_M06L_PC2_OPT_FREQ
 ---------------------
 Symbolic Z-matrix:
 Charge =  0 Multiplicity = 1

 SCF Done:  E(RM06L) =  -323.581625198     A.U. after   19 cycles
 SCF Done:  E(RM06L) =  -323.582275483     A.U. after   14 cycles
 SCF Done:  E(RM06L) =  -323.582280895     A.U. after    9 cycles
 SCF Done:  E(RM06L) =  -323.582281014     A.U. after    8 cycles
 Optimization completed.
    -- Stationary point found.
 Normal termination of Gaussian 09 at Fri Aug 27 21:17:39 2021.

 -----------------------------------------------------------------
 #P Geom=AllCheck Guess=TCheck SCRF=Check GenChk RM06L/ChkBas Freq
 -----------------------------------------------------------------

 Structure from the checkpoint file:  "4PY_M06L_PC2_OPT_FREQ.chk"
 ---------------------
 4PY_M06L_PC2_OPT_FREQ
 ---------------------
 Charge =  0 Multiplicity = 1

                         Standard orientation:
 ---------------------------------------------------------------------
 Center     Atomic      Atomic             Coordinates (Angstroms)
 Number     Number       Type             X           Y           Z
 ---------------------------------------------------------------------
      1          6           0        0.000032    1.042422    1.185544
      2          6           0        0.000032   -0.305085    1.219063
      3          6           0        0.000571   -1.105445   -0.000000
      4          6           0        0.000032   -0.305085   -1.219063
      5          6           0        0.000032    1.042422   -1.185544
      6          7           0        0.000177    1.720203    0.000000
      7          1           0       -0.000111    1.658440    2.071875
      8          1           0       -0.000207   -0.818345    2.167657
      9          1           0       -0.000207   -0.818345   -2.167657
     10          1           0       -0.000111    1.658440   -2.071875
     11          8           0       -0.000591   -2.332139   -0.000000
     12          1           0       -0.000077    2.720118    0.000000
 ---------------------------------------------------------------------

 SCF Done:  E(RM06L) =  -323.582281014     A.U. after    1 cycles

 The electronic state is 1-A'.
 Alpha  occ. eigenvalues --  -18.89975 -14.24557 -10.10785 -10.10785 -10.10295
 Alpha  occ. eigenvalues --  -10.04711 -10.04711  -0.96943  -0.95845  -0.75518
 Alpha  occ. eigenvalues --   -0.75134  -0.61277  -0.59131  -0.55271  -0.46858
 Alpha  occ. eigenvalues --   -0.44384  -0.41849  -0.40600  -0.40568  -0.34349
 Alpha  occ. eigenvalues --   -0.34251  -0.33187  -0.26428  -0.20341  -0.18767
 Alpha virt. eigenvalues --   -0.04175  -0.04165  -0.00434   0.03745   0.05650
 Alpha virt. eigenvalues --    0.07981   0.08286   0.10795   0.13356   0.15181
 Alpha virt. eigenvalues --    0.16496   0.17800   0.18013   0.19364   0.21519

 Mulliken charges:
               1
     1  C    0.231945
     2  C   -0.103081
     3  C    0.547750
     4  C   -0.103081
     5  C    0.231945
     6  N   -0.333768
     7  H    0.012733
     8  H   -0.019431
     9  H   -0.019431
    10  H    0.012733
    11  O   -0.609115
    12  H    0.150802
 Sum of Mulliken charges =  -0.00000

 Dipole moment (field-independent basis, Debye):
    X=              0.0011    Y=              6.8265    Z=              0.0000  Tot=              6.8265
 Quadrupole moment (field-independent basis, Debye-Ang):
   XX=            -42.0088   YY=            -41.8592   ZZ=            -34.6432
   XY=             -0.0048   XZ=              0.0000   YZ=              0.0000

  Exact polarizability:  37.047   0.005  91.268  -0.000   0.000  69.508
 Approx polarizability:  57.569   0.026 207.756   0.000   0.000 113.643

                      1                      2                      3
                     A'                     A"                     A'
 Frequencies --    161.7100               425.0953               429.9978
 Red. masses --      5.4643                 3.2838                 2.4680
 Frc consts  --      0.0842                 0.3496                 0.2689
 IR Inten    --      0.6645                 0.0000                41.9419

                      4                      5                      6
                     A"                     A'                     A'
 Frequencies --    453.6916               522.7616               549.3726
 Red. masses --      5.7710                 8.1719                 1.2266
 Frc consts  --      0.6999                 1.3158                 0.2181
 IR Inten    --      4.6163                 6.5457                34.3817

                      7                      8                      9
                     A"                     A'                     A"
 Frequencies --    627.4062               731.4567               811.7318
 Red. masses --      6.6382                 2.3122                 1.2572
 Frc consts  --      1.5396                 0.7289                 0.4881
 IR Inten    --      1.4225                21.7988                 0.0000

                     10                     11                     12
                     A'                     A'                     A"
 Frequencies --    820.7044               862.7841               964.6215
 Red. masses --      4.8418                 2.4111                 1.2826
 Frc consts  --      1.9214                 1.0575                 0.7032
 IR Inten    --      4.7053                62.7911                 0.0000

                     13                     14                     15
                     A'                     A'                     A'
 Frequencies --    965.3519              1008.7389              1024.3223
 Red. masses --      1.1902                 4.3619                 2.5390
 Frc consts  --      0.6535                 2.6151                 1.5696
 IR Inten    --      0.0768                50.8150                 0.0651

                     16                     17                     18
                     A"                     A'                     A"
 Frequencies --   1081.3649              1204.8043              1252.4585
 Red. masses --      1.7071                 1.2042                 1.9023
 Frc consts  --      1.1761                 1.0299                 1.7581
 IR Inten    --      2.2163                16.1063                 2.0490

                     19                     20                     21
                     A"                     A"                     A'
 Frequencies --   1265.9162              1421.9613              1439.9843
 Red. masses --      1.2716                 1.8228                 1.7821
 Frc consts  --      1.2007                 2.1715                 2.1772
 IR Inten    --     10.3148                 0.0124                 0.6726

                     22                     23                     24
                     A"                     A"                     A'
 Frequencies --   1539.9468              1638.7284              1682.6095
 Red. masses --      3.6688                 3.0555                 6.4638
 Frc consts  --      5.1261                 4.8345                10.7821
 IR Inten    --     92.7361                 1.5282                18.5816

                     25                     26                     27
                     A'                     A"                     A'
 Frequencies --   1724.4989              3201.4184              3202.6582
 Red. masses --      7.6744                 1.0888                 1.0889
 Frc consts  --     13.4468                 6.5748                 6.5807
 IR Inten    --    545.4750                 6.1387                 7.1256

                     28                     29                     30
                     A"                     A'                     A'
 Frequencies --   3226.5982              3228.0538              3673.8135
 Red. masses --      1.0961                 1.0967                 1.0790
 Frc consts  --      6.7237                 6.7333                 8.5803
 IR Inten    --     10.5917                 0.1301                84.6096

 - Thermochemistry -
 -------------------
 Temperature   298.150 Kelvin.  Pressure   1.00000 Atm.
 Atom     1 has atomic number  6 and mass  12.00000

 Molecular mass:    95.03711 amu.
 Principal axes and moments of inertia in atomic units:
                           1         2         3
     Eigenvalues --   312.54889 662.64622 975.19504
           X            0.00010  -0.00000   1.00000
           Y            1.00000  -0.00000  -0.00010
           Z            0.00000   1.00000   0.00000
 This molecule is an asymmetric top.
 Rotational symmetry number  1.
 Rotational temperatures (Kelvin)      0.27712     0.13071     0.08882
 Rotational constants (GHZ):           5.77427     2.72354     1.85065
 Zero-point vibrational energy     246099.1 (Joules/Mol)
                                   58.81910 (Kcal/Mol)
 Warning -- explicit consideration of   6 degrees of freedom as
           vibrations may cause significant error
 Vibrational temperatures:    232.66   611.62   618.67   652.76   752.14
          (Kelvin)            790.42   902.70  1052.40  1167.90  1180.81
                             1241.35  1387.87  1388.92  1451.35  1473.77
                             1555.84  1733.44  1802.01  1821.37  2045.88
                             2071.81  2215.64  2357.76  2420.90  2481.17
                             4606.12  4607.91  4642.35  4644.44  5285.79

 Zero-point correction=                           0.093734 (Hartree/Particle)
 Thermal correction to Energy=                    0.099119
 Thermal correction to Enthalpy=                  0.100063
 Thermal correction to Gibbs Free Energy=         0.064706
 Sum of electronic and zero-point Energies=           -323.488547
 Sum of electronic and thermal Energies=              -323.483162
 Sum of electronic and thermal Enthalpies=            -323.482218
 Sum of electronic and thermal Free Energies=         -323.517575

                     E (Thermal)             CV                S
                      KCal/Mol        Cal/Mol-Kelvin    Cal/Mol-Kelvin
 Total                   62.198             20.675             74.415
 Electronic               0.000              0.000              0.000
 Translational            0.889              2.981             39.566
 Rotational               0.889              2.981             26.804
 Vibrational             60.421             14.714              8.045
 Vibration     1          0.622              1.889              2.530
 Vibration     2          0.787              1.416              0.875
 Vibration     3          0.791              1.405              0.859
 Vibration     4          0.812              1.353              0.785
 Vibration     5          0.878              1.200              0.604
 Vibration     6          0.905              1.141              0.545

 Optimization completed.
    -- Stationary point found.
 Normal termination of Gaussian 09 at Fri Aug 27 21:18:20 2021.
