 Gaussian 09, Revision E.01,
 Gaussian 09:  EM64L-G09RevE.01 30-Nov-2015

 ----------------------
 #p opt freq PBEPBE/gen
 ----------------------

 -----------------------
 4PY_PBEPBE_PC2_OPT_FREQ
 -----------------------
 Symbolic Z-matrix:
 Charge =  0 Multiplicity = 1

 SCF Done:  E(RPBE-PBE) =  -323.258038496     A.U. after   18 cycles
 SCF Done:  E(RPBE-PBE) =  -323.258191591     A.U. after    9 cycles
 SCF Done:  E(RPBE-PBE) =  -323.258197605     A.U. after    8 cycles
 SCF Done:  E(RPBE-PBE) =  -323.258197963     A.U. after    8 cycles
 SCF Done:  E(RPBE-PBE) =  -323.258198300     A.U. after    7 cycles
 Optimization completed.
    -- Stationary point found.
 Normal termination of Gaussian 09 at Fri Aug 27 21:11:07 2021.

 -------------------------------------------------------------------
 #P Geom=AllCheck Guess=TCheck SCRF=Check GenChk RPBEPBE/ChkBas Freq
 -------------------------------------------------------------------

 Structure from the checkpoint file:  "4PY_PBEPBE_PC2_OPT_FREQ.chk"
 -----------------------
 4PY_PBEPBE_PC2_OPT_FREQ
 -----------------------
 Charge =  0 Multiplicity = 1

                         Standard orientation:
 ---------------------------------------------------------------------
 Center     Atomic      Atomic             Coordinates (Angstroms)
 Number     Number       Type             X           Y           Z
 ---------------------------------------------------------------------
      1          6           0        0.000000    1.051901    1.193180
      2          6           0        0.000000   -0.307346    1.226329
      3          6           0       -0.000102   -1.111609    0.000000
      4          6           0        0.000000   -0.307346   -1.226329
      5          6           0        0.000000    1.051901   -1.193180
      6          7           0        0.000019    1.731125   -0.000000
      7          1           0        0.000022    1.673005    2.088434
      8          1           0        0.000037   -0.828932    2.182250
      9          1           0        0.000037   -0.828932   -2.182250
     10          1           0        0.000022    1.673005   -2.088434
     11          8           0        0.000061   -2.351790    0.000000
     12          1           0       -0.000141    2.743292   -0.000000
 ---------------------------------------------------------------------

 SCF Done:  E(RPBE-PBE) =  -323.258198300     A.U. after    1 cycles

 The electronic state is 1-A'.
 Alpha  occ. eigenvalues --  -18.69274 -14.06461  -9.94958  -9.94957  -9.94390
 Alpha  occ. eigenvalues --   -9.89301  -9.89301  -0.92133  -0.90538  -0.72082
 Alpha  occ. eigenvalues --   -0.72003  -0.59311  -0.56812  -0.54036  -0.45874
 Alpha  occ. eigenvalues --   -0.43046  -0.41062  -0.39755  -0.39679  -0.33615
 Alpha  occ. eigenvalues --   -0.33414  -0.32598  -0.26275  -0.20409  -0.18277
 Alpha virt. eigenvalues --   -0.05899  -0.05745  -0.03414   0.01288   0.02505
 Alpha virt. eigenvalues --    0.05649   0.05811   0.07952   0.09981   0.12760
 Alpha virt. eigenvalues --    0.12844   0.12992   0.13648   0.16286   0.16527

 Mulliken charges:
               1
     1  C    0.135089
     2  C   -0.143079
     3  C    0.319757
     4  C   -0.143079
     5  C    0.135089
     6  N   -0.251777
     7  H    0.065720
     8  H    0.052941
     9  H    0.052941
    10  H    0.065720
    11  O   -0.445816
    12  H    0.156492
 Sum of Mulliken charges =  -0.00000

 Dipole moment (field-independent basis, Debye):
    X=             -0.0003    Y=              6.8963    Z=             -0.0000  Tot=              6.8963
 Quadrupole moment (field-independent basis, Debye-Ang):
   XX=            -43.3112   YY=            -42.4043   ZZ=            -34.8882
   XY=             -0.0003   XZ=              0.0000   YZ=             -0.0000

  Exact polarizability:  38.817  -0.000  94.249   0.000  -0.000  74.120
 Approx polarizability:  65.244  -0.002 236.241   0.000   0.000 128.514

                      1                      2                      3
                     A'                     A"                     A'
 Frequencies --    146.0201               405.1098               413.5815
 Red. masses --      5.3255                 3.2233                 2.3776
 Frc consts  --      0.0669                 0.3117                 0.2396
 IR Inten    --      0.4563                 0.0000                48.5673

                      4                      5                      6
                     A"                     A'                     A'
 Frequencies --    440.7378               505.8235               520.1103
 Red. masses --      5.8226                 8.2692                 1.2361
 Frc consts  --      0.6664                 1.2466                 0.1970
 IR Inten    --      3.9100                 7.4146                31.1317

                      7                      8                      9
                     A"                     A'                     A"
 Frequencies --    605.2692               696.7481               771.3165
 Red. masses --      6.6521                 2.3635                 1.2688
 Frc consts  --      1.4358                 0.6760                 0.4447
 IR Inten    --      1.7235                26.5314                 0.0000

                     10                     11                     12
                     A'                     A'                     A'
 Frequencies --    795.3102               825.7241               916.7969
 Red. masses --      4.7988                 2.3615                 1.2094
 Frc consts  --      1.7884                 0.9486                 0.5989
 IR Inten    --      3.0788                62.2888                 0.0365

                     13                     14                     15
                     A"                     A'                     A'
 Frequencies --    918.6211               977.6307               995.5751
 Red. masses --      1.2807                 5.3123                 2.2482
 Frc consts  --      0.6367                 2.9915                 1.3129
 IR Inten    --      0.0000                42.8305                 3.1423

                     16                     17                     18
                     A"                     A'                     A"
 Frequencies --   1046.3059              1165.4230              1212.0851
 Red. masses --      1.6781                 1.2009                 2.0363
 Frc consts  --      1.0824                 0.9610                 1.7626
 IR Inten    --      4.4370                12.6388                 3.3168

                     19                     20                     21
                     A"                     A"                     A'
 Frequencies --   1224.2162              1367.0413              1387.9890
 Red. masses --      1.1981                 1.8094                 1.8276
 Frc consts  --      1.0579                 1.9923                 2.0745
 IR Inten    --      4.3805                 0.0932                 0.1105

                     22                     23                     24
                     A"                     A"                     A'
 Frequencies --   1489.7525              1572.1847              1610.1136
 Red. masses --      4.1254                 3.0271                 6.9251
 Frc consts  --      5.3944                 4.4085                10.5777
 IR Inten    --     77.9759                 3.3201                51.5282

                     25                     26                     27
                     A'                     A"                     A'
 Frequencies --   1653.2376              3122.9525              3123.7412
 Red. masses --      7.0927                 1.0882                 1.0887
 Frc consts  --     11.4217                 6.2532                 6.2590
 IR Inten    --    418.1938                 3.6270                 6.2024

                     28                     29                     30
                     A"                     A'                     A'
 Frequencies --   3144.0820              3145.4182              3571.4206
 Red. masses --      1.0956                 1.0964                 1.0784
 Frc consts  --      6.3811                 6.3910                 8.1046
 IR Inten    --      6.0460                 0.5542                88.1938

 - Thermochemistry -
 -------------------
 Temperature   298.150 Kelvin.  Pressure   1.00000 Atm.
 Atom     1 has atomic number  6 and mass  12.00000

 Molecular mass:    95.03711 amu.
 Principal axes and moments of inertia in atomic units:
                           1         2         3
     Eigenvalues --   316.58141 673.11482 989.69623
           X           -0.00000   0.00000   1.00000
           Y            1.00000   0.00000   0.00000
           Z           -0.00000   1.00000  -0.00000
 This molecule is an asymmetric top.
 Rotational symmetry number  1.
 Rotational temperatures (Kelvin)      0.27359     0.12868     0.08752
 Rotational constants (GHZ):           5.70072     2.68118     1.82353
 Zero-point vibrational energy     237879.4 (Joules/Mol)
                                   56.85455 (Kcal/Mol)
 Warning -- explicit consideration of   7 degrees of freedom as
           vibrations may cause significant error
 Vibrational temperatures:    210.09   582.86   595.05   634.12   727.77
          (Kelvin)            748.32   870.85  1002.46  1109.75  1144.27
                             1188.03  1319.06  1321.69  1406.59  1432.41
                             1505.40  1676.78  1743.92  1761.37  1966.87
                             1997.00  2143.42  2262.02  2316.59  2378.64
                             4493.23  4494.36  4523.63  4525.55  5138.47

 Zero-point correction=                           0.090603 (Hartree/Particle)
 Thermal correction to Energy=                    0.096188
 Thermal correction to Enthalpy=                  0.097132
 Thermal correction to Gibbs Free Energy=         0.061408
 Sum of electronic and zero-point Energies=           -323.167595
 Sum of electronic and thermal Energies=              -323.162010
 Sum of electronic and thermal Enthalpies=            -323.161066
 Sum of electronic and thermal Free Energies=         -323.196790

                     E (Thermal)             CV                S
                      KCal/Mol        Cal/Mol-Kelvin    Cal/Mol-Kelvin
 Total                   60.359             21.556             75.188
 Electronic               0.000              0.000              0.000
 Translational            0.889              2.981             39.566
 Rotational               0.889              2.981             26.847
 Vibrational             58.582             15.594              8.774
 Vibration     1          0.617              1.907              2.723
 Vibration     2          0.770              1.459              0.944
 Vibration     3          0.777              1.441              0.914
 Vibration     4          0.801              1.381              0.824
 Vibration     5          0.861              1.237              0.644
 Vibration     6          0.875              1.205              0.610
 Vibration     7          0.964              1.021              0.441

 Optimization completed.
    -- Stationary point found.
 Normal termination of Gaussian 09 at Fri Aug 27 21:11:45 2021.
