 Gaussian 09, Revision E.01,
 Gaussian 09:  EM64L-G09RevE.01 30-Nov-2015

 ---------------------
 #p opt freq M062X/gen
 ---------------------

 ----------------------
 4PY_M062X_PC2_OPT_FREQ
 ----------------------
 Symbolic Z-matrix:
 Charge =  0 Multiplicity = 1

 SCF Done:  E(RM062X) =  -323.505487549     A.U. after   16 cycles
 SCF Done:  E(RM062X) =  -323.506233696     A.U. after   11 cycles
 SCF Done:  E(RM062X) =  -323.506248293     A.U. after    8 cycles
 SCF Done:  E(RM062X) =  -323.506248994     A.U. after    8 cycles
 SCF Done:  E(RM062X) =  -323.506249201     A.U. after    8 cycles
 Optimization completed.
    -- Stationary point found.
 Normal termination of Gaussian 09 at Fri Aug 27 21:30:14 2021.

 ------------------------------------------------------------------
 #P Geom=AllCheck Guess=TCheck SCRF=Check GenChk RM062X/ChkBas Freq
 ------------------------------------------------------------------

 Structure from the checkpoint file:  "4PY_M062X_PC2_OPT_FREQ.chk"
 ----------------------
 4PY_M062X_PC2_OPT_FREQ
 ----------------------
 Charge =  0 Multiplicity = 1

                         Standard orientation:
 ---------------------------------------------------------------------
 Center     Atomic      Atomic             Coordinates (Angstroms)
 Number     Number       Type             X           Y           Z
 ---------------------------------------------------------------------
      1          6           0       -0.000016    1.040262    1.185362
      2          6           0       -0.000016   -0.305097    1.225288
      3          6           0       -0.000352   -1.104830    0.000000
      4          6           0       -0.000016   -0.305097   -1.225288
      5          6           0       -0.000016    1.040262   -1.185362
      6          7           0       -0.000044    1.718265   -0.000000
      7          1           0        0.000072    1.654381    2.074238
      8          1           0        0.000125   -0.823500    2.172093
      9          1           0        0.000125   -0.823500   -2.172093
     10          1           0        0.000072    1.654381   -2.074238
     11          8           0        0.000323   -2.325523    0.000000
     12          1           0       -0.000177    2.721570   -0.000000
 ---------------------------------------------------------------------

 SCF Done:  E(RM062X) =  -323.506249201     A.U. after    1 cycles

 The electronic state is 1-A'.
 Alpha  occ. eigenvalues --  -19.57178 -14.82383 -10.60696 -10.60694 -10.60595
 Alpha  occ. eigenvalues --  -10.54226 -10.54225  -1.13172  -1.11204  -0.89336
 Alpha  occ. eigenvalues --   -0.89296  -0.74009  -0.71434  -0.67507  -0.58549
 Alpha  occ. eigenvalues --   -0.55739  -0.52937  -0.51995  -0.51828  -0.46150
 Alpha  occ. eigenvalues --   -0.45036  -0.44362  -0.35043  -0.30465  -0.28288
 Alpha virt. eigenvalues --    0.00793   0.01133   0.01220   0.04568   0.06511
 Alpha virt. eigenvalues --    0.08666   0.09347   0.15055   0.15938   0.17179
 Alpha virt. eigenvalues --    0.18681   0.18694   0.19397   0.21682   0.21986

 Mulliken charges:
               1
     1  C    0.253568
     2  C   -0.189478
     3  C    0.467005
     4  C   -0.189478
     5  C    0.253568
     6  N   -0.359027
     7  H    0.038928
     8  H    0.027186
     9  H    0.027186
    10  H    0.038928
    11  O   -0.502912
    12  H    0.134525
 Sum of Mulliken charges =   0.00000

 Dipole moment (field-independent basis, Debye):
    X=             -0.0010    Y=              6.9784    Z=             -0.0000  Tot=              6.9784
 Quadrupole moment (field-independent basis, Debye-Ang):
   XX=            -43.4103   YY=            -42.5146   ZZ=            -34.5330
   XY=              0.0015   XZ=              0.0000   YZ=             -0.0000

  Exact polarizability:  38.155  -0.002  90.501  -0.000   0.000  67.764
 Approx polarizability:  49.947  -0.006 125.024  -0.000   0.000  79.058

                      1                      2                      3
                     A'                     A"                     A'
 Frequencies --    154.4014               423.5520               436.1613
 Red. masses --      5.2254                 3.4110                 2.3207
 Frc consts  --      0.0734                 0.3605                 0.2601
 IR Inten    --      0.7382                 0.0000                58.9660

                      4                      5                      6
                     A"                     A'                     A'
 Frequencies --    463.5208               521.7609               538.8593
 Red. masses --      5.7880                 8.2867                 1.2586
 Frc consts  --      0.7327                 1.3291                 0.2153
 IR Inten    --      5.7946                 8.0340                35.1499

                      7                      8                      9
                     A"                     A'                     A"
 Frequencies --    627.9146               731.2237               817.8062
 Red. masses --      6.6524                 2.3459                 1.2347
 Frc consts  --      1.5454                 0.7390                 0.4866
 IR Inten    --      1.3551                17.8302                 0.0000

                     10                     11                     12
                     A'                     A'                     A"
 Frequencies --    824.2740               867.6909               985.6620
 Red. masses --      4.8499                 2.3680                 1.2873
 Frc consts  --      1.9414                 1.0504                 0.7369
 IR Inten    --      6.3004                75.8620                 0.0000

                     13                     14                     15
                     A'                     A'                     A'
 Frequencies --    990.3686              1003.9472              1030.5936
 Red. masses --      1.2118                 5.3432                 2.1962
 Frc consts  --      0.7003                 3.1730                 1.3744
 IR Inten    --      1.3911                62.1845                 6.0601

                     16                     17                     18
                     A"                     A'                     A"
 Frequencies --   1087.0397              1207.2201              1252.0011
 Red. masses --      1.6864                 1.2066                 1.7429
 Frc consts  --      1.1741                 1.0361                 1.6096
 IR Inten    --      1.3018                22.0196                 0.3253

                     19                     20                     21
                     A"                     A"                     A'
 Frequencies --   1274.3214              1426.4754              1445.5118
 Red. masses --      1.2842                 1.7625                 1.8038
 Frc consts  --      1.2287                 2.1130                 2.2207
 IR Inten    --     11.9002                 0.4253                 0.1854

                     22                     23                     24
                     A"                     A"                     A'
 Frequencies --   1554.0125              1647.1163              1704.0321
 Red. masses --      4.0564                 3.4609                 5.8794
 Frc consts  --      5.7716                 5.5320                10.0586
 IR Inten    --    131.1836                 1.4166                 7.8958

                     25                     26                     27
                     A'                     A"                     A'
 Frequencies --   1751.4624              3218.5885              3218.6556
 Red. masses --      9.2303                 1.0897                 1.0901
 Frc consts  --     16.6827                 6.6508                 6.6538
 IR Inten    --    683.9873                 0.0725                 0.3168

                     28                     29                     30
                     A"                     A'                     A'
 Frequencies --   3243.2481              3244.6797              3690.2629
 Red. masses --      1.0970                 1.0980                 1.0793
 Frc consts  --      6.7985                 6.8110                 8.6596
 IR Inten    --      4.4832                 2.0448               127.0733

 - Thermochemistry -
 -------------------
 Temperature   298.150 Kelvin.  Pressure   1.00000 Atm.
 Atom     1 has atomic number  6 and mass  12.00000

 Molecular mass:    95.03711 amu.
 Principal axes and moments of inertia in atomic units:
                           1         2         3
     Eigenvalues --   314.02502 660.10765 974.13266
           X           -0.00005  -0.00000   1.00000
           Y            1.00000   0.00000   0.00005
           Z           -0.00000   1.00000   0.00000
 This molecule is an asymmetric top.
 Rotational symmetry number  1.
 Rotational temperatures (Kelvin)      0.27582     0.13121     0.08891
 Rotational constants (GHZ):           5.74713     2.73401     1.85266
 Zero-point vibrational energy     247521.5 (Joules/Mol)
                                   59.15906 (Kcal/Mol)
 Warning -- explicit consideration of   6 degrees of freedom as
           vibrations may cause significant error
 Vibrational temperatures:    222.15   609.40   627.54   666.90   750.70
          (Kelvin)            775.30   903.43  1052.07  1176.64  1185.95
                             1248.41  1418.15  1424.92  1444.45  1482.79
                             1564.01  1736.92  1801.35  1833.46  2052.38
                             2079.77  2235.87  2369.83  2451.72  2519.96
                             4630.83  4630.92  4666.30  4668.36  5309.46

 Zero-point correction=                           0.094276 (Hartree/Particle)
 Thermal correction to Energy=                    0.099655
 Thermal correction to Enthalpy=                  0.100599
 Thermal correction to Gibbs Free Energy=         0.065227
 Sum of electronic and zero-point Energies=           -323.411973
 Sum of electronic and thermal Energies=              -323.406594
 Sum of electronic and thermal Enthalpies=            -323.405650
 Sum of electronic and thermal Free Energies=         -323.441022

                     E (Thermal)             CV                S
                      KCal/Mol        Cal/Mol-Kelvin    Cal/Mol-Kelvin
 Total                   62.535             20.575             74.448
 Electronic               0.000              0.000              0.000
 Translational            0.889              2.981             39.566
 Rotational               0.889              2.981             26.804
 Vibrational             60.757             14.613              8.077
 Vibration     1          0.620              1.898              2.617
 Vibration     2          0.786              1.419              0.880
 Vibration     3          0.797              1.391              0.839
 Vibration     4          0.821              1.331              0.756
 Vibration     5          0.877              1.202              0.606
 Vibration     6          0.894              1.164              0.568

 Optimization completed.
    -- Stationary point found.
 Normal termination of Gaussian 09 at Fri Aug 27 21:30:54 2021.
