 Gaussian 09, Revision E.01,
 Gaussian 09:  EM64L-G09RevE.01 30-Nov-2015

 --------------------
 #p opt freq SVWN/gen
 --------------------

 ---------------------
 4PY_SVWN_PC2_OPT_FREQ
 ---------------------
 Symbolic Z-matrix:
 Charge =  0 Multiplicity = 1

 SCF Done:  E(RS-VWN) =  -321.883481032     A.U. after   17 cycles
 SCF Done:  E(RS-VWN) =  -321.884856103     A.U. after   12 cycles
 SCF Done:  E(RS-VWN) =  -321.884870315     A.U. after    9 cycles
 SCF Done:  E(RS-VWN) =  -321.884871216     A.U. after    8 cycles
 SCF Done:  E(RS-VWN) =  -321.884871289     A.U. after    7 cycles
 Optimization completed.
    -- Stationary point found.
 Normal termination of Gaussian 09 at Fri Aug 27 21:09:40 2021.

 -----------------------------------------------------------------
 #P Geom=AllCheck Guess=TCheck SCRF=Check GenChk RSVWN/ChkBas Freq
 -----------------------------------------------------------------

 Structure from the checkpoint file:  "4PY_SVWN_PC2_OPT_FREQ.chk"
 ---------------------
 4PY_SVWN_PC2_OPT_FREQ
 ---------------------
 Charge =  0 Multiplicity = 1

                         Standard orientation:
 ---------------------------------------------------------------------
 Center     Atomic      Atomic             Coordinates (Angstroms)
 Number     Number       Type             X           Y           Z
 ---------------------------------------------------------------------
      1          6           0        0.000001    1.042436    1.178958
      2          6           0        0.000001   -0.305547    1.211937
      3          6           0       -0.000352   -1.098781   -0.000000
      4          6           0        0.000001   -0.305547   -1.211937
      5          6           0        0.000001    1.042436   -1.178958
      6          7           0       -0.000036    1.713485    0.000000
      7          1           0        0.000091    1.660323    2.078368
      8          1           0        0.000140   -0.833585    2.166189
      9          1           0        0.000140   -0.833585   -2.166189
     10          1           0        0.000091    1.660323   -2.078368
     11          8           0        0.000254   -2.328194   -0.000000
     12          1           0       -0.000156    2.727701    0.000000
 ---------------------------------------------------------------------

 SCF Done:  E(RS-VWN) =  -321.884871289     A.U. after    1 cycles

 The electronic state is 1-A'.
 Alpha  occ. eigenvalues --  -18.55404 -13.95209  -9.85973  -9.85968  -9.85225
 Alpha  occ. eigenvalues --   -9.80193  -9.80190  -0.94544  -0.92563  -0.74259
 Alpha  occ. eigenvalues --   -0.74041  -0.61704  -0.58732  -0.56614  -0.48774
 Alpha  occ. eigenvalues --   -0.44605  -0.43236  -0.42868  -0.41934  -0.35653
 Alpha  occ. eigenvalues --   -0.35627  -0.35561  -0.28944  -0.22926  -0.20487
 Alpha virt. eigenvalues --   -0.08321  -0.07971  -0.05165  -0.00146   0.00986
 Alpha virt. eigenvalues --    0.04316   0.04442   0.05960   0.07436   0.10486
 Alpha virt. eigenvalues --    0.10824   0.10997   0.11555   0.14276   0.14324

 Mulliken charges:
               1
     1  C    0.108742
     2  C   -0.222234
     3  C    0.336689
     4  C   -0.222234
     5  C    0.108742
     6  N   -0.268269
     7  H    0.105914
     8  H    0.094825
     9  H    0.094825
    10  H    0.105914
    11  O   -0.417399
    12  H    0.174485
 Sum of Mulliken charges =   0.00000

 Dipole moment (field-independent basis, Debye):
    X=             -0.0007    Y=              7.0419    Z=              0.0000  Tot=              7.0419
 Quadrupole moment (field-independent basis, Debye-Ang):
   XX=            -43.3574   YY=            -42.3289   ZZ=            -34.6067
   XY=              0.0011   XZ=              0.0000   YZ=              0.0000

  Exact polarizability:  38.699  -0.001  92.608  -0.000   0.000  73.014
 Approx polarizability:  65.204  -0.012 229.590   0.000   0.000 126.147

                      1                      2                      3
                     A'                     A"                     A'
 Frequencies --    144.5349               409.9004               438.0371
 Red. masses --      5.2483                 3.1791                 2.4162
 Frc consts  --      0.0646                 0.3147                 0.2732
 IR Inten    --      0.3457                 0.0000                37.7384

                      4                      5                      6
                     A"                     A'                     A'
 Frequencies --    443.0255               510.9010               551.2308
 Red. masses --      5.6479                 8.1068                 1.1879
 Frc consts  --      0.6531                 1.2467                 0.2127
 IR Inten    --      4.5507                 7.3825                50.5173

                      7                      8                      9
                     A"                     A'                     A"
 Frequencies --    613.1358               707.2912               775.4388
 Red. masses --      6.5925                 2.3538                 1.2692
 Frc consts  --      1.4602                 0.6938                 0.4497
 IR Inten    --      1.4657                26.4851                 0.0000

                     10                     11                     12
                     A'                     A'                     A'
 Frequencies --    820.5699               835.6699               920.8273
 Red. masses --      4.4277                 2.4184                 1.2414
 Frc consts  --      1.7566                 0.9951                 0.6202
 IR Inten    --      1.3943                63.0113                 0.1626

                     13                     14                     15
                     A"                     A'                     A'
 Frequencies --    921.2451               989.6955              1013.0928
 Red. masses --      1.2901                 4.7234                 2.0508
 Frc consts  --      0.6451                 2.7259                 1.2402
 IR Inten    --      0.0000                27.5777                16.7306

                     16                     17                     18
                     A"                     A'                     A"
 Frequencies --   1052.1725              1157.5518              1223.0104
 Red. masses --      1.4073                 1.2146                 1.1721
 Frc consts  --      0.9179                 0.9589                 1.0329
 IR Inten    --      6.5853                10.5221                 2.9559

                     19                     20                     21
                     A"                     A"                     A'
 Frequencies --   1229.8919              1379.7042              1391.5928
 Red. masses --      1.9615                 1.9919                 1.9756
 Frc consts  --      1.7481                 2.2341                 2.2541
 IR Inten    --      2.0488                 0.4344                 0.0101

                     22                     23                     24
                     A"                     A"                     A'
 Frequencies --   1529.2287              1597.5229              1652.1949
 Red. masses --      4.2451                 4.3465                 7.2455
 Frc consts  --      5.8490                 6.5356                11.6531
 IR Inten    --     83.5455                 0.1552                 9.3436

                     25                     26                     27
                     A'                     A"                     A'
 Frequencies --   1701.9053              3124.7895              3125.8153
 Red. masses --      8.7704                 1.0894                 1.0901
 Frc consts  --     14.9671                 6.2673                 6.2754
 IR Inten    --    479.5195                 1.7774                 1.8070

                     28                     29                     30
                     A"                     A'                     A'
 Frequencies --   3145.5518              3146.5919              3569.9580
 Red. masses --      1.0965                 1.0975                 1.0788
 Frc consts  --      6.3921                 6.4022                 8.1008
 IR Inten    --      0.1883                 0.8356               113.5171

 - Thermochemistry -
 -------------------
 Temperature   298.150 Kelvin.  Pressure   1.00000 Atm.
 Atom     1 has atomic number  6 and mass  12.00000

 Molecular mass:    95.03711 amu.
 Principal axes and moments of inertia in atomic units:
                           1         2         3
     Eigenvalues --   309.87765 660.22100 970.09863
           X           -0.00003   0.00000   1.00000
           Y            1.00000   0.00000   0.00003
           Z           -0.00000   1.00000  -0.00000
 This molecule is an asymmetric top.
 Rotational symmetry number  1.
 Rotational temperatures (Kelvin)      0.27951     0.13119     0.08928
 Rotational constants (GHZ):           5.82404     2.73354     1.86037
 Zero-point vibrational energy     239983.3 (Joules/Mol)
                                   57.35739 (Kcal/Mol)
 Warning -- explicit consideration of   7 degrees of freedom as
           vibrations may cause significant error
 Vibrational temperatures:    207.95   589.75   630.24   637.41   735.07
          (Kelvin)            793.10   882.16  1017.63  1115.68  1180.62
                             1202.34  1324.86  1325.46  1423.95  1457.61
                             1513.84  1665.46  1759.64  1769.54  1985.08
                             2002.19  2200.22  2298.48  2377.14  2448.66
                             4495.87  4497.35  4525.74  4527.24  5136.37

 Zero-point correction=                           0.091405 (Hartree/Particle)
 Thermal correction to Energy=                    0.096910
 Thermal correction to Enthalpy=                  0.097854
 Thermal correction to Gibbs Free Energy=         0.062276
 Sum of electronic and zero-point Energies=           -321.793466
 Sum of electronic and thermal Energies=              -321.787961
 Sum of electronic and thermal Enthalpies=            -321.787017
 Sum of electronic and thermal Free Energies=         -321.822595

                     E (Thermal)             CV                S
                      KCal/Mol        Cal/Mol-Kelvin    Cal/Mol-Kelvin
 Total                   60.812             21.221             74.881
 Electronic               0.000              0.000              0.000
 Translational            0.889              2.981             39.566
 Rotational               0.889              2.981             26.787
 Vibrational             59.035             15.260              8.527
 Vibration     1          0.616              1.909              2.743
 Vibration     2          0.774              1.449              0.927
 Vibration     3          0.798              1.387              0.833
 Vibration     4          0.803              1.376              0.817
 Vibration     5          0.866              1.226              0.631
 Vibration     6          0.907              1.137              0.542
 Vibration     7          0.972              1.004              0.428

 Optimization completed.
    -- Stationary point found.
 Normal termination of Gaussian 09 at Fri Aug 27 21:10:07 2021.
