 Gaussian 09, Revision E.01,
 Gaussian 09:  EM64L-G09RevE.01 30-Nov-2015

 -------------------------
 #p opt freq CAM-B3LYP/gen
 -------------------------

 --------------------------
 4PY_CAM-B3LYP_PC2_OPT_FREQ
 --------------------------
 Symbolic Z-matrix:
 Charge =  0 Multiplicity = 1

 SCF Done:  E(RCAM-B3LYP) =  -323.483672696     A.U. after   14 cycles
 SCF Done:  E(RCAM-B3LYP) =  -323.484704469     A.U. after   11 cycles
 SCF Done:  E(RCAM-B3LYP) =  -323.484718102     A.U. after    8 cycles
 SCF Done:  E(RCAM-B3LYP) =  -323.484718442     A.U. after    8 cycles
 SCF Done:  E(RCAM-B3LYP) =  -323.484718563     A.U. after    8 cycles
 Optimization completed.
    -- Stationary point found.
 Normal termination of Gaussian 09 at Fri Aug 27 21:22:48 2021.

 ----------------------------------------------------------------------
 #P Geom=AllCheck Guess=TCheck SCRF=Check GenChk RCAM-B3LYP/ChkBas Freq
 ----------------------------------------------------------------------

 Structure from the checkpoint file:  "4PY_CAM-B3LYP_PC2_OPT_FREQ.chk"
 --------------------------
 4PY_CAM-B3LYP_PC2_OPT_FREQ
 --------------------------
 Charge =  0 Multiplicity = 1

                         Standard orientation:
 ---------------------------------------------------------------------
 Center     Atomic      Atomic             Coordinates (Angstroms)
 Number     Number       Type             X           Y           Z
 ---------------------------------------------------------------------
      1          6           0       -0.000020    1.038151    1.183825
      2          6           0       -0.000020   -0.304161    1.222101
      3          6           0       -0.000308   -1.100916   -0.000000
      4          6           0       -0.000020   -0.304161   -1.222101
      5          6           0       -0.000020    1.038151   -1.183825
      6          7           0       -0.000042    1.715709    0.000000
      7          1           0        0.000054    1.650274    2.073645
      8          1           0        0.000102   -0.824081    2.167665
      9          1           0        0.000102   -0.824081   -2.167665
     10          1           0        0.000054    1.650274   -2.073645
     11          8           0        0.000309   -2.322917   -0.000000
     12          1           0       -0.000156    2.718601    0.000000
 ---------------------------------------------------------------------

 SCF Done:  E(RCAM-B3LYP) =  -323.484718563     A.U. after    1 cycles

 The electronic state is 1-A'.
 Alpha  occ. eigenvalues --  -19.14148 -14.46466 -10.31449 -10.31448 -10.31384
 Alpha  occ. eigenvalues --  -10.24993 -10.24993  -1.09451  -1.08120  -0.87886
 Alpha  occ. eigenvalues --   -0.87796  -0.73332  -0.70577  -0.67217  -0.58669
 Alpha  occ. eigenvalues --   -0.55337  -0.53233  -0.51866  -0.51765  -0.45739
 Alpha  occ. eigenvalues --   -0.45049  -0.43979  -0.35454  -0.29730  -0.28686
 Alpha virt. eigenvalues --    0.01844   0.01974   0.02167   0.05823   0.07515
 Alpha virt. eigenvalues --    0.10174   0.10730   0.16014   0.16669   0.18361
 Alpha virt. eigenvalues --    0.19268   0.19686   0.20530   0.22185   0.22911

 Mulliken charges:
               1
     1  C    0.158248
     2  C   -0.166077
     3  C    0.363450
     4  C   -0.166077
     5  C    0.158248
     6  N   -0.273210
     7  H    0.062457
     8  H    0.059188
     9  H    0.059188
    10  H    0.062457
    11  O   -0.468526
    12  H    0.150654
 Sum of Mulliken charges =   0.00000

 Dipole moment (field-independent basis, Debye):
    X=             -0.0009    Y=              7.0643    Z=              0.0000  Tot=              7.0643
 Quadrupole moment (field-independent basis, Debye-Ang):
   XX=            -43.3816   YY=            -43.0091   ZZ=            -34.8242
   XY=              0.0015   XZ=             -0.0000   YZ=              0.0000

  Exact polarizability:  38.114  -0.002  90.429   0.000  -0.000  67.658
 Approx polarizability:  49.332  -0.006 121.659   0.000  -0.000  76.974

                      1                      2                      3
                     A'                     A"                     A'
 Frequencies --    157.5257               428.2710               439.8945
 Red. masses --      5.2916                 3.2494                 2.2996
 Frc consts  --      0.0774                 0.3511                 0.2622
 IR Inten    --      0.8630                 0.0000                57.6844

                      4                      5                      6
                     A"                     A'                     A'
 Frequencies --    465.3517               527.6439               543.8753
 Red. masses --      5.8100                 8.3292                 1.2380
 Frc consts  --      0.7413                 1.3663                 0.2158
 IR Inten    --      5.6272                 8.4489                38.5312

                      7                      8                      9
                     A"                     A'                     A"
 Frequencies --    634.5113               737.3210               815.6576
 Red. masses --      6.6599                 2.3213                 1.2504
 Frc consts  --      1.5798                 0.7435                 0.4901
 IR Inten    --      1.6012                18.5117                 0.0000

                     10                     11                     12
                     A'                     A'                     A'
 Frequencies --    825.5566               873.8813               982.9931
 Red. masses --      4.8604                 2.3942                 1.2338
 Frc consts  --      1.9517                 1.0772                 0.7024
 IR Inten    --      6.2134                76.3985                 0.0027

                     13                     14                     15
                     A"                     A'                     A'
 Frequencies --    983.2925              1013.3935              1036.6600
 Red. masses --      1.2950                 4.4535                 2.4388
 Frc consts  --      0.7377                 2.6947                 1.5442
 IR Inten    --      0.0000                66.2781                 0.1108

                     16                     17                     18
                     A"                     A'                     A"
 Frequencies --   1091.3454              1213.1962              1263.4231
 Red. masses --      1.7295                 1.1993                 1.5000
 Frc consts  --      1.2136                 1.0400                 1.4107
 IR Inten    --      1.6752                20.0575                 0.4280

                     19                     20                     21
                     A"                     A"                     A'
 Frequencies --   1278.5102              1436.2948              1455.2174
 Red. masses --      1.4832                 1.7569                 1.8047
 Frc consts  --      1.4284                 2.1354                 2.2517
 IR Inten    --     11.8796                 0.2389                 0.0273

                     22                     23                     24
                     A"                     A"                     A'
 Frequencies --   1559.0264              1653.9392              1703.1951
 Red. masses --      4.0038                 3.2169                 6.2216
 Frc consts  --      5.7337                 5.1847                10.6335
 IR Inten    --    121.5861                 3.0220                 1.7968

                     25                     26                     27
                     A'                     A"                     A'
 Frequencies --   1744.4794              3219.2780              3219.8060
 Red. masses --      8.2093                 1.0896                 1.0904
 Frc consts  --     14.7194                 6.6532                 6.6600
 IR Inten    --    652.3390                 2.4501                 2.5146

                     28                     29                     30
                     A"                     A'                     A'
 Frequencies --   3239.7496              3240.9654              3686.3697
 Red. masses --      1.0969                 1.0978                 1.0792
 Frc consts  --      6.7834                 6.7942                 8.6405
 IR Inten    --      2.5955                 0.3472               117.3338

 - Thermochemistry -
 -------------------
 Temperature   298.150 Kelvin.  Pressure   1.00000 Atm.
 Atom     1 has atomic number  6 and mass  12.00000

 Molecular mass:    95.03711 amu.
 Principal axes and moments of inertia in atomic units:
                           1         2         3
     Eigenvalues --   312.88850 658.03732 970.92580
           X           -0.00005   0.00000   1.00000
           Y            1.00000  -0.00000   0.00005
           Z            0.00000   1.00000   0.00000
 This molecule is an asymmetric top.
 Rotational symmetry number  1.
 Rotational temperatures (Kelvin)      0.27682     0.13162     0.08921
 Rotational constants (GHZ):           5.76800     2.74261     1.85878
 Zero-point vibrational energy     248049.4 (Joules/Mol)
                                   59.28523 (Kcal/Mol)
 Warning -- explicit consideration of   6 degrees of freedom as
           vibrations may cause significant error
 Vibrational temperatures:    226.64   616.19   632.91   669.54   759.16
          (Kelvin)            782.51   912.92  1060.84  1173.55  1187.79
                             1257.32  1414.31  1414.74  1458.05  1491.52
                             1570.20  1745.52  1817.78  1839.49  2066.51
                             2093.73  2243.09  2379.65  2450.51  2509.91
                             4631.82  4632.58  4661.27  4663.02  5303.86

 Zero-point correction=                           0.094477 (Hartree/Particle)
 Thermal correction to Energy=                    0.099825
 Thermal correction to Enthalpy=                  0.100769
 Thermal correction to Gibbs Free Energy=         0.065459
 Sum of electronic and zero-point Energies=           -323.390242
 Sum of electronic and thermal Energies=              -323.384894
 Sum of electronic and thermal Enthalpies=            -323.383950
 Sum of electronic and thermal Free Energies=         -323.419259

                     E (Thermal)             CV                S
                      KCal/Mol        Cal/Mol-Kelvin    Cal/Mol-Kelvin
 Total                   62.641             20.463             74.316
 Electronic               0.000              0.000              0.000
 Translational            0.889              2.981             39.566
 Rotational               0.889              2.981             26.794
 Vibrational             60.864             14.502              7.956
 Vibration     1          0.621              1.894              2.579
 Vibration     2          0.790              1.409              0.864
 Vibration     3          0.800              1.383              0.827
 Vibration     4          0.823              1.327              0.751
 Vibration     5          0.883              1.189              0.592
 Vibration     6          0.899              1.153              0.557

 Optimization completed.
    -- Stationary point found.
 Normal termination of Gaussian 09 at Fri Aug 27 21:23:30 2021.
