 Gaussian 09, Revision E.01,
 Gaussian 09:  EM64L-G09RevE.01 30-Nov-2015

 ------------------------
 #p opt freq TPSSTPSS/gen
 ------------------------

 -------------------------
 4PY_TPSSTPSS_PC2_OPT_FREQ
 -------------------------
 Symbolic Z-matrix:
 Charge =  0 Multiplicity = 1

 SCF Done:  E(RTPSS-TPSS) =  -323.688445904     A.U. after   17 cycles
 SCF Done:  E(RTPSS-TPSS) =  -323.688500643     A.U. after    9 cycles
 SCF Done:  E(RTPSS-TPSS) =  -323.688508252     A.U. after    8 cycles
 SCF Done:  E(RTPSS-TPSS) =  -323.688508019     A.U. after    7 cycles
 SCF Done:  E(RTPSS-TPSS) =  -323.688508409     A.U. after    7 cycles
 Optimization completed.
    -- Stationary point found.
 Normal termination of Gaussian 09 at Fri Aug 27 21:16:02 2021.

 ---------------------------------------------------------------------
 #P Geom=AllCheck Guess=TCheck SCRF=Check GenChk RTPSSTPSS/ChkBas Freq
 ---------------------------------------------------------------------

 Structure from the checkpoint file:  "4PY_TPSSTPSS_PC2_OPT_FREQ.chk"
 -------------------------
 4PY_TPSSTPSS_PC2_OPT_FREQ
 -------------------------
 Charge =  0 Multiplicity = 1

                         Standard orientation:
 ---------------------------------------------------------------------
 Center     Atomic      Atomic             Coordinates (Angstroms)
 Number     Number       Type             X           Y           Z
 ---------------------------------------------------------------------
      1          6           0       -0.000001    1.049555    1.193848
      2          6           0       -0.000001   -0.307143    1.225925
      3          6           0       -0.000005   -1.109140    0.000000
      4          6           0       -0.000001   -0.307143   -1.225925
      5          6           0       -0.000001    1.049555   -1.193848
      6          7           0        0.000038    1.730008   -0.000000
      7          1           0       -0.000004    1.669318    2.083309
      8          1           0       -0.000005   -0.825195    2.177872
      9          1           0       -0.000005   -0.825195   -2.177872
     10          1           0       -0.000004    1.669318   -2.083309
     11          8           0       -0.000008   -2.348941    0.000000
     12          1           0       -0.000131    2.739126   -0.000000
 ---------------------------------------------------------------------

 SCF Done:  E(RTPSS-TPSS) =  -323.688508409     A.U. after    1 cycles

 The electronic state is 1-A'.
 Alpha  occ. eigenvalues --  -18.82551 -14.17921 -10.05299 -10.05299 -10.04631
 Alpha  occ. eigenvalues --   -9.99475  -9.99475  -0.93742  -0.92183  -0.73521
 Alpha  occ. eigenvalues --   -0.73437  -0.60238  -0.57911  -0.54786  -0.46190
 Alpha  occ. eigenvalues --   -0.44150  -0.41838  -0.40383  -0.39887  -0.34266
 Alpha  occ. eigenvalues --   -0.33663  -0.32634  -0.26293  -0.20291  -0.18517
 Alpha virt. eigenvalues --   -0.05175  -0.05129  -0.02567   0.01999   0.03314
 Alpha virt. eigenvalues --    0.06336   0.06575   0.09007   0.11031   0.13764
 Alpha virt. eigenvalues --    0.13947   0.14028   0.14797   0.17391   0.17561

 Mulliken charges:
               1
     1  C    0.172145
     2  C   -0.152710
     3  C    0.366065
     4  C   -0.152710
     5  C    0.172145
     6  N   -0.294546
     7  H    0.065710
     8  H    0.038274
     9  H    0.038274
    10  H    0.065710
    11  O   -0.472742
    12  H    0.154383
 Sum of Mulliken charges =  -0.00000

 Dipole moment (field-independent basis, Debye):
    X=             -0.0002    Y=              6.9193    Z=              0.0000  Tot=              6.9193
 Quadrupole moment (field-independent basis, Debye-Ang):
   XX=            -43.0132   YY=            -42.4335   ZZ=            -34.7151
   XY=             -0.0008   XZ=              0.0000   YZ=              0.0000

  Exact polarizability:  38.272   0.000  93.612   0.000   0.000  72.711
 Approx polarizability:  62.848   0.001 226.304  -0.000  -0.000 121.803

                      1                      2                      3
                     A'                     A"                     A'
 Frequencies --    151.2187               409.7020               413.7526
 Red. masses --      5.3553                 3.2719                 2.3904
 Frc consts  --      0.0722                 0.3236                 0.2411
 IR Inten    --      0.5707                 0.0000                49.9385

                      4                      5                      6
                     A"                     A'                     A'
 Frequencies --    439.2957               506.4778               521.9415
 Red. masses --      5.8530                 8.2414                 1.2548
 Frc consts  --      0.6655                 1.2456                 0.2014
 IR Inten    --      4.3188                 7.4423                29.4428

                      7                      8                      9
                     A"                     A'                     A"
 Frequencies --    609.1794               707.0534               792.1977
 Red. masses --      6.6562                 2.4677                 1.2662
 Frc consts  --      1.4554                 0.7269                 0.4682
 IR Inten    --      1.6829                23.1454                 0.0000

                     10                     11                     12
                     A'                     A'                     A'
 Frequencies --    797.3832               841.2490               940.0157
 Red. masses --      4.9821                 2.2413                 1.1941
 Frc consts  --      1.8664                 0.9345                 0.6217
 IR Inten    --      3.4507                65.9022                 0.0020

                     13                     14                     15
                     A"                     A'                     A'
 Frequencies --    940.9757               984.8437              1005.6105
 Red. masses --      1.2746                 4.3710                 2.6726
 Frc consts  --      0.6649                 2.4978                 1.5924
 IR Inten    --      0.0000                50.0264                 0.1492

                     16                     17                     18
                     A"                     A'                     A"
 Frequencies --   1056.9456              1189.6892              1232.7567
 Red. masses --      1.8507                 1.2061                 1.9354
 Frc consts  --      1.2181                 1.0057                 1.7329
 IR Inten    --      2.5791                15.8620                 2.1115

                     19                     20                     21
                     A"                     A"                     A'
 Frequencies --   1239.8264              1393.8452              1416.4771
 Red. masses --      1.2538                 1.7449                 1.7933
 Frc consts  --      1.1355                 1.9973                 2.1199
 IR Inten    --      8.2586                 0.2387                 0.9343

                     22                     23                     24
                     A"                     A"                     A'
 Frequencies --   1498.0404              1591.6977              1616.3806
 Red. masses --      4.1534                 2.6323                 6.6321
 Frc consts  --      5.4916                 3.9293                10.2091
 IR Inten    --     80.2187                 6.0681                99.0954

                     25                     26                     27
                     A'                     A"                     A'
 Frequencies --   1662.0964              3158.5096              3158.8414
 Red. masses --      6.0567                 1.0875                 1.0880
 Frc consts  --      9.8583                 6.3921                 6.3962
 IR Inten    --    380.7586                 2.5395                 7.5950

                     28                     29                     30
                     A"                     A'                     A'
 Frequencies --   3176.9751              3178.5965              3592.8167
 Red. masses --      1.0964                 1.0970                 1.0786
 Frc consts  --      6.5201                 6.5302                 8.2034
 IR Inten    --     11.9652                 0.9190                82.9306

 - Thermochemistry -
 -------------------
 Temperature   298.150 Kelvin.  Pressure   1.00000 Atm.
 Atom     1 has atomic number  6 and mass  12.00000

 Molecular mass:    95.03711 amu.
 Principal axes and moments of inertia in atomic units:
                           1         2         3
     Eigenvalues --   316.34193 671.27426 987.61619
           X            0.00000  -0.00000   1.00000
           Y            1.00000  -0.00000  -0.00000
           Z            0.00000   1.00000   0.00000
 This molecule is an asymmetric top.
 Rotational symmetry number  1.
 Rotational temperatures (Kelvin)      0.27380     0.12903     0.08770
 Rotational constants (GHZ):           5.70503     2.68853     1.82737
 Zero-point vibrational energy     240595.3 (Joules/Mol)
                                   57.50365 (Kcal/Mol)
 Warning -- explicit consideration of   7 degrees of freedom as
           vibrations may cause significant error
 Vibrational temperatures:    217.57   589.47   595.30   632.05   728.71
          (Kelvin)            750.96   876.47  1017.29  1139.79  1147.26
                             1210.37  1352.47  1353.85  1416.97  1446.85
                             1520.71  1711.70  1773.66  1783.83  2005.43
                             2037.99  2155.34  2290.10  2325.61  2391.38
                             4544.39  4544.86  4570.95  4573.29  5169.26

 Zero-point correction=                           0.091638 (Hartree/Particle)
 Thermal correction to Energy=                    0.097173
 Thermal correction to Enthalpy=                  0.098117
 Thermal correction to Gibbs Free Energy=         0.062483
 Sum of electronic and zero-point Energies=           -323.596871
 Sum of electronic and thermal Energies=              -323.591336
 Sum of electronic and thermal Enthalpies=            -323.590391
 Sum of electronic and thermal Free Energies=         -323.626026

                     E (Thermal)             CV                S
                      KCal/Mol        Cal/Mol-Kelvin    Cal/Mol-Kelvin
 Total                   60.977             21.290             74.999
 Electronic               0.000              0.000              0.000
 Translational            0.889              2.981             39.566
 Rotational               0.889              2.981             26.842
 Vibrational             59.199             15.329              8.591
 Vibration     1          0.619              1.901              2.657
 Vibration     2          0.774              1.449              0.928
 Vibration     3          0.777              1.440              0.913
 Vibration     4          0.799              1.384              0.829
 Vibration     5          0.862              1.236              0.642
 Vibration     6          0.877              1.201              0.605
 Vibration     7          0.968              1.012              0.434

 Optimization completed.
    -- Stationary point found.
 Normal termination of Gaussian 09 at Fri Aug 27 21:16:42 2021.
