 Gaussian 09, Revision E.01,
 Gaussian 09:  EM64L-G09RevE.01 30-Nov-2015

 -------------------------
 #p opt freq BHandHLYP/gen
 -------------------------

 --------------------------
 4PY_BHandHLYP_PC2_OPT_FREQ
 --------------------------
 Symbolic Z-matrix:
 Charge =  0 Multiplicity = 1

 SCF Done:  E(RBHandHLYP) =  -323.441307299     A.U. after   15 cycles
 SCF Done:  E(RBHandHLYP) =  -323.444099060     A.U. after   11 cycles
 SCF Done:  E(RBHandHLYP) =  -323.444145545     A.U. after    8 cycles
 SCF Done:  E(RBHandHLYP) =  -323.444147231     A.U. after    8 cycles
 SCF Done:  E(RBHandHLYP) =  -323.444146767     A.U. after    8 cycles
 SCF Done:  E(RBHandHLYP) =  -323.444147451     A.U. after    7 cycles
 Optimization completed.
    -- Stationary point found.
 Normal termination of Gaussian 09 at Fri Aug 27 21:20:59 2021.

 ----------------------------------------------------------------------
 #P Geom=AllCheck Guess=TCheck SCRF=Check GenChk RBHandHLYP/ChkBas Freq
 ----------------------------------------------------------------------

 Structure from the checkpoint file:  "4PY_BHandHLYP_PC2_OPT_FREQ.chk"
 --------------------------
 4PY_BHandHLYP_PC2_OPT_FREQ
 --------------------------
 Charge =  0 Multiplicity = 1

                         Standard orientation:
 ---------------------------------------------------------------------
 Center     Atomic      Atomic             Coordinates (Angstroms)
 Number     Number       Type             X           Y           Z
 ---------------------------------------------------------------------
      1          6           0       -0.000002    1.033734    1.178518
      2          6           0       -0.000002   -0.303455    1.218796
      3          6           0        0.000007   -1.098208   -0.000000
      4          6           0       -0.000002   -0.303455   -1.218796
      5          6           0       -0.000002    1.033734   -1.178518
      6          7           0        0.000025    1.709108    0.000000
      7          1           0       -0.000005    1.641110    2.062572
      8          1           0       -0.000005   -0.817565    2.159173
      9          1           0       -0.000005   -0.817565   -2.159173
     10          1           0       -0.000005    1.641110   -2.062572
     11          8           0       -0.000006   -2.311065   -0.000000
     12          1           0       -0.000116    2.703568    0.000000
 ---------------------------------------------------------------------

 SCF Done:  E(RBHandHLYP) =  -323.444147451     A.U. after    1 cycles

 The electronic state is 1-A'.
 Alpha  occ. eigenvalues --  -19.61853 -14.87241 -10.65134 -10.65112 -10.65110
 Alpha  occ. eigenvalues --  -10.58353 -10.58352  -1.15051  -1.13287  -0.91090
 Alpha  occ. eigenvalues --   -0.90930  -0.75179  -0.72468  -0.68290  -0.59540
 Alpha  occ. eigenvalues --   -0.56288  -0.53767  -0.52455  -0.51645  -0.46693
 Alpha  occ. eigenvalues --   -0.45505  -0.43596  -0.34080  -0.30158  -0.27574
 Alpha virt. eigenvalues --    0.01315   0.02114   0.02167   0.05225   0.06931
 Alpha virt. eigenvalues --    0.09616   0.10243   0.15484   0.16509   0.17815
 Alpha virt. eigenvalues --    0.19216   0.19255   0.20396   0.21655   0.22486

 Mulliken charges:
               1
     1  C    0.221287
     2  C   -0.152096
     3  C    0.421029
     4  C   -0.152096
     5  C    0.221287
     6  N   -0.326769
     7  H    0.043596
     8  H    0.032012
     9  H    0.032012
    10  H    0.043596
    11  O   -0.523692
    12  H    0.139834
 Sum of Mulliken charges =   0.00000

 Dipole moment (field-independent basis, Debye):
    X=             -0.0002    Y=              7.1122    Z=             -0.0000  Tot=              7.1122
 Quadrupole moment (field-independent basis, Debye-Ang):
   XX=            -43.2323   YY=            -42.8359   ZZ=            -34.5095
   XY=             -0.0007   XZ=              0.0000   YZ=             -0.0000

  Exact polarizability:  37.689  -0.000  88.308   0.000  -0.000  65.303
 Approx polarizability:  49.947   0.000 120.055  -0.000   0.000  75.540

                      1                      2                      3
                     A'                     A"                     A'
 Frequencies --    165.4990               439.8775               446.0345
 Red. masses --      5.3316                 3.2678                 2.1855
 Frc consts  --      0.0860                 0.3725                 0.2562
 IR Inten    --      1.0507                 0.0000                66.7312

                      4                      5                      6
                     A"                     A'                     A'
 Frequencies --    477.8711               540.1903               549.8217
 Red. masses --      5.8209                 8.3288                 1.2751
 Frc consts  --      0.7832                 1.4320                 0.2271
 IR Inten    --      6.5259                 9.0243                31.9744

                      7                      8                      9
                     A"                     A'                     A"
 Frequencies --    650.2160               760.2554               841.9525
 Red. masses --      6.6649                 2.3100                 1.2465
 Frc consts  --      1.6602                 0.7866                 0.5206
 IR Inten    --      1.6166                17.6400                 0.0000

                     10                     11                     12
                     A'                     A'                     A"
 Frequencies --    843.0177               901.9098              1016.5091
 Red. masses --      4.9376                 2.4038                 1.2958
 Frc consts  --      2.0675                 1.1521                 0.7889
 IR Inten    --      6.5226                82.6420                 0.0000

                     13                     14                     15
                     A'                     A'                     A'
 Frequencies --   1017.2546              1036.5638              1062.8342
 Red. masses --      1.2308                 4.1195                 2.6015
 Frc consts  --      0.7504                 2.6079                 1.7315
 IR Inten    --      0.0360                70.7674                 0.2170

                     16                     17                     18
                     A"                     A'                     A"
 Frequencies --   1117.7323              1246.7757              1295.2721
 Red. masses --      1.7947                 1.2055                 1.5030
 Frc consts  --      1.3210                 1.1041                 1.4857
 IR Inten    --      1.0521                23.6416                 0.3455

                     19                     20                     21
                     A"                     A"                     A'
 Frequencies --   1313.7554              1478.1166              1497.3013
 Red. masses --      1.4921                 1.7590                 1.7867
 Frc consts  --      1.5173                 2.2643                 2.3600
 IR Inten    --     15.9022                 0.0844                 0.0352

                     22                     23                     24
                     A"                     A"                     A'
 Frequencies --   1598.9585              1695.3772              1746.4139
 Red. masses --      4.0615                 2.9226                 5.6251
 Frc consts  --      6.1180                 4.9494                10.1081
 IR Inten    --    128.4615                 5.8726                 3.3564

                     25                     26                     27
                     A'                     A"                     A'
 Frequencies --   1792.1266              3293.2115              3293.5079
 Red. masses --      8.7436                 1.0894                 1.0901
 Frc consts  --     16.5455                 6.9609                 6.9670
 IR Inten    --    705.1167                 2.6197                 2.8406

                     28                     29                     30
                     A"                     A'                     A'
 Frequencies --   3312.9291              3314.0655              3787.6924
 Red. masses --      1.0972                 1.0981                 1.0794
 Frc consts  --      7.0953                 7.1059                 9.1238
 IR Inten    --      3.9722                 0.3697               121.5015

 - Thermochemistry -
 -------------------
 Temperature   298.150 Kelvin.  Pressure   1.00000 Atm.
 Atom     1 has atomic number  6 and mass  12.00000

 Molecular mass:    95.03711 amu.
 Principal axes and moments of inertia in atomic units:
                           1         2         3
     Eigenvalues --   310.52856 652.11223 962.64079
           X            0.00000   0.00000   1.00000
           Y            1.00000   0.00000  -0.00000
           Z           -0.00000   1.00000  -0.00000
 This molecule is an asymmetric top.
 Rotational symmetry number  1.
 Rotational temperatures (Kelvin)      0.27892     0.13282     0.08998
 Rotational constants (GHZ):           5.81184     2.76753     1.87478
 Zero-point vibrational energy     254404.1 (Joules/Mol)
                                   60.80404 (Kcal/Mol)
 Warning -- explicit consideration of   6 degrees of freedom as
           vibrations may cause significant error
 Vibrational temperatures:    238.12   632.88   641.74   687.55   777.21
          (Kelvin)            791.07   935.51  1093.84  1211.38  1212.91
                             1297.65  1462.53  1463.60  1491.38  1529.18
                             1608.17  1793.83  1863.61  1890.20  2126.68
                             2154.28  2300.54  2439.27  2512.70  2578.47
                             4738.19  4738.62  4766.56  4768.20  5449.64

 Zero-point correction=                           0.096897 (Hartree/Particle)
 Thermal correction to Energy=                    0.102134
 Thermal correction to Enthalpy=                  0.103078
 Thermal correction to Gibbs Free Energy=         0.067965
 Sum of electronic and zero-point Energies=           -323.347250
 Sum of electronic and thermal Energies=              -323.342014
 Sum of electronic and thermal Enthalpies=            -323.341069
 Sum of electronic and thermal Free Energies=         -323.376183

                     E (Thermal)             CV                S
                      KCal/Mol        Cal/Mol-Kelvin    Cal/Mol-Kelvin
 Total                   64.090             19.917             73.903
 Electronic               0.000              0.000              0.000
 Translational            0.889              2.981             39.566
 Rotational               0.889              2.981             26.769
 Vibrational             62.313             13.955              7.567
 Vibration     1          0.624              1.885              2.486
 Vibration     2          0.800              1.383              0.827
 Vibration     3          0.805              1.370              0.808
 Vibration     4          0.834              1.299              0.716
 Vibration     5          0.895              1.161              0.565
 Vibration     6          0.905              1.140              0.545

 Optimization completed.
    -- Stationary point found.
 Normal termination of Gaussian 09 at Fri Aug 27 21:21:34 2021.
