 Gaussian 09, Revision E.01,
 Gaussian 09:  EM64L-G09RevE.01 30-Nov-2015

 ---------------------
 #p G3 geom=checkpoint
 ---------------------

 -----
 HY_G3
 -----
 Structure from the checkpoint file:  "HY_G3.chk"
 Charge =  0 Multiplicity = 1

 SCF Done:  E(RHF) =  -321.565494771     A.U. after   14 cycles
 SCF Done:  E(RHF) =  -321.567022615     A.U. after   11 cycles
 SCF Done:  E(RHF) =  -321.567096575     A.U. after   10 cycles
 SCF Done:  E(RHF) =  -321.567103839     A.U. after    9 cycles
 SCF Done:  E(RHF) =  -321.567105399     A.U. after    9 cycles
 Optimization completed.
    -- Stationary point found.
 Normal termination of Gaussian 09 at Fri Sep  3 00:21:47 2021.

 -------------------------------------------------------
 #P Geom=AllCheck Guess=TCheck SCRF=Check HF/GTBas1 Freq
 -------------------------------------------------------

 Structure from the checkpoint file:  "HY_G3.chk"
 -----
 HY_G3
 -----
 Charge =  0 Multiplicity = 1

 SCF Done:  E(RHF) =  -321.567105399     A.U. after    1 cycles

  Exact polarizability:  62.675   0.627  70.195  -0.000   0.000  22.008
 Approx polarizability:  62.216   0.298  66.750  -0.000   0.000  24.889

                      1                      2                      3
                     A"                     A'                     A"
 Frequencies --    246.5795               456.5106               462.8494
 Red. masses --      4.9417                 4.2811                 3.3191
 Frc consts  --      0.1770                 0.5257                 0.4189
 IR Inten    --      1.0653                18.4336                 0.3207
 Raman Activ --      2.3325                 0.1933                 0.1670

                      4                      5                      6
                     A"                     A"                     A'
 Frequencies --    518.6226               599.7954               611.7762
 Red. masses --      1.2100                 2.3068                 6.9859
 Frc consts  --      0.1918                 0.4889                 1.5405
 IR Inten    --    144.9276                10.3944                 0.9653
 Raman Activ --      1.9013                 1.0198                 4.9073

                      7                      8                      9
                     A'                     A"                     A"
 Frequencies --    687.7847               834.4415               875.1049
 Red. masses --      7.0795                 2.1839                 1.7982
 Frc consts  --      1.9731                 0.8959                 0.8114
 IR Inten    --      3.4618                 0.0310                90.7030
 Raman Activ --      3.8128                 1.1517                 0.3079

                     10                     11                     12
                     A'                     A"                     A'
 Frequencies --    928.4081               970.5126              1085.3158
 Red. masses --      5.7438                 1.3997                 7.1947
 Frc consts  --      2.9169                 0.7768                 4.9931
 IR Inten    --     10.2358                 6.9086                13.5681
 Raman Activ --     13.3532                 1.4263                14.1008

                     13                     14                     15
                     A"                     A"                     A'
 Frequencies --   1106.5294              1126.4440              1142.9783
 Red. masses --      1.3845                 1.3239                 2.0583
 Frc consts  --      0.9988                 0.9897                 1.5843
 IR Inten    --      0.1183                 0.5258                 4.4064
 Raman Activ --      0.9848                 0.6157                 5.3027

                     16                     17                     18
                     A'                     A'                     A'
 Frequencies --   1195.3064              1213.2113              1309.7150
 Red. masses --      2.1318                 1.6823                 1.3453
 Frc consts  --      1.7946                 1.4589                 1.3597
 IR Inten    --     63.4112                13.1734                81.5272
 Raman Activ --      9.7704                 3.4559                 5.9029

                     19                     20                     21
                     A'                     A'                     A'
 Frequencies --   1350.5083              1456.0168              1489.5603
 Red. masses --      1.6292                 3.2125                 1.2734
 Frc consts  --      1.7508                 4.0127                 1.6647
 IR Inten    --    105.9097                76.4411                26.7986
 Raman Activ --      7.5445                 7.3748                 1.5143

                     22                     23                     24
                     A'                     A'                     A'
 Frequencies --   1625.8450              1664.2332              1799.5512
 Red. masses --      2.5216                 2.5291                 6.1120
 Frc consts  --      3.9273                 4.1271                11.6617
 IR Inten    --     60.6138               166.0720               166.6630
 Raman Activ --      1.1156                 1.0502                14.6674

                     25                     26                     27
                     A'                     A'                     A'
 Frequencies --   1820.7535              3369.0878              3375.8392
 Red. masses --      5.3180                 1.0885                 1.0926
 Frc consts  --     10.3874                 7.2796                 7.3365
 IR Inten    --    123.9206                 5.4238                27.9498
 Raman Activ --      7.9106                78.2478                76.7624

                     28                     29                     30
                     A'                     A'                     A'
 Frequencies --   3401.8474              3411.9481              4074.5225
 Red. masses --      1.0972                 1.0970                 1.0654
 Frc consts  --      7.4809                 7.5243                10.4212
 IR Inten    --     22.3123                 2.6021               129.7199
 Raman Activ --     98.0157               149.3728                75.7927

 - Thermochemistry -
 -------------------
 Temperature   298.150 Kelvin.  Pressure   1.00000 Atm.
 Atom     1 has atomic number  8 and mass  15.99491

 Molecular mass:    95.03711 amu.
 Principal axes and moments of inertia in atomic units:
                           1         2         3
     Eigenvalues --   303.43243 641.04710 944.47954
           X           -0.02352   0.99972   0.00000
           Y            0.99972   0.02352   0.00000
           Z           -0.00000  -0.00000   1.00000
 This molecule is an asymmetric top.
 Rotational symmetry number  1.
 Rotational temperatures (Kelvin)      0.28545     0.13511     0.09171
 Rotational constants (GHZ):           5.94775     2.81530     1.91083
 Zero-point vibrational energy     264444.1 (Joules/Mol)
                                   63.20365 (Kcal/Mol)
 Warning -- explicit consideration of   6 degrees of freedom as
           vibrations may cause significant error
 Vibrational temperatures:    354.77   656.82   665.94   746.18   862.97
          (Kelvin)            880.21   989.57  1200.57  1259.08  1335.77
                             1396.35  1561.53  1592.05  1620.70  1644.49
                             1719.78  1745.54  1884.39  1943.08  2094.88
                             2143.14  2339.23  2394.46  2589.15  2619.65
                             4847.36  4857.07  4894.49  4909.03  5862.32

 Zero-point correction=                           0.100721 (Hartree/Particle)
 Thermal correction to Energy=                    0.105583
 Thermal correction to Enthalpy=                  0.106527
 Thermal correction to Gibbs Free Energy=         0.072149
 Sum of electronic and zero-point Energies=           -321.466384
 Sum of electronic and thermal Energies=              -321.461522
 Sum of electronic and thermal Enthalpies=            -321.460578
 Sum of electronic and thermal Free Energies=         -321.494956

                     E (Thermal)             CV                S
                      KCal/Mol        Cal/Mol-Kelvin    Cal/Mol-Kelvin
 Total                   66.254             18.560             72.355
 Electronic               0.000              0.000              0.000
 Translational            0.889              2.981             39.566
 Rotational               0.889              2.981             26.710
 Vibrational             64.477             12.599              6.078
 Vibration     1          0.661              1.768              1.755
 Vibration     2          0.815              1.346              0.776
 Vibration     3          0.820              1.332              0.758
 Vibration     4          0.874              1.209              0.613
 Vibration     5          0.958              1.032              0.450
 Vibration     6          0.971              1.007              0.430

 Optimization completed.
    -- Stationary point found.
 Normal termination of Gaussian 09 at Fri Sep  3 00:21:56 2021.

 ------------------------------------------------------------------
 #P Geom=AllCheck Guess=TCheck SCRF=Check MP2(Full)/GTBas1 Opt=RCFC
 ------------------------------------------------------------------

 Structure from the checkpoint file:  "HY_G3.chk"
 -----
 HY_G3
 -----
 Charge =  0 Multiplicity = 1

 SCF Done:  E(RHF) =  -321.567105399     A.U. after    1 cycles
 E2 =    -0.9914314570D+00 EUMP2 =    -0.32255853685595D+03
 SCF Done:  E(RHF) =  -321.564530289     A.U. after   12 cycles
 E2 =    -0.9969127268D+00 EUMP2 =    -0.32256144301595D+03
 SCF Done:  E(RHF) =  -321.563877592     A.U. after   10 cycles
 E2 =    -0.9976083955D+00 EUMP2 =    -0.32256148598767D+03
 SCF Done:  E(RHF) =  -321.563885461     A.U. after    9 cycles
 E2 =    -0.9976018724D+00 EUMP2 =    -0.32256148733371D+03
 Optimization completed.
    -- Stationary point found.
 Normal termination of Gaussian 09 at Fri Sep  3 00:22:21 2021.

 ------------------------------------------------------------------
 #P Geom=AllCheck Guess=TCheck SCRF=Check QCISD(T,E4T,FrzG3)/GTBas1
 ------------------------------------------------------------------

 Structure from the checkpoint file:  "HY_G3.chk"
 -----
 HY_G3
 -----
 Charge =  0 Multiplicity = 1

 SCF Done:  E(RHF) =  -321.563885461     A.U. after    1 cycles
 E2 =    -0.9663913918D+00 EUMP2 =    -0.32253027685306D+03
 Normal termination of Gaussian 09 at Fri Sep  3 00:24:29 2021.

 ---------------------------------------------------------
 #P Geom=AllCheck Guess=TCheck SCRF=Check MP4=FrzG3/GTBas2
 ---------------------------------------------------------

 Structure from the checkpoint file:  "HY_G3.chk"
 -----
 HY_G3
 -----
 Charge =  0 Multiplicity = 1

 SCF Done:  E(RHF) =  -321.574250652     A.U. after   13 cycles
 E2 =    -0.9785784159D+00 EUMP2 =    -0.32255282906776D+03
 Normal termination of Gaussian 09 at Fri Sep  3 00:26:26 2021.

 ---------------------------------------------------------
 #P Geom=AllCheck Guess=TCheck SCRF=Check MP4=FrzG3/GTBas3
 ---------------------------------------------------------

 Structure from the checkpoint file:  "HY_G3.chk"
 -----
 HY_G3
 -----
 Charge =  0 Multiplicity = 1

 SCF Done:  E(RHF) =  -321.598687476     A.U. after   12 cycles
 E2 =    -0.1158120181D+01 EUMP2 =    -0.32275680765653D+03
 Normal termination of Gaussian 09 at Fri Sep  3 00:39:18 2021.

                         Standard orientation:
 ---------------------------------------------------------------------
 Center     Atomic      Atomic             Coordinates (Angstroms)
 Number     Number       Type             X           Y           Z
 ---------------------------------------------------------------------
      1          8           0        0.010258    2.261065   -0.000000
      2          7           0       -1.186892    0.299112   -0.000000
      3          6           0       -0.000000    0.901444   -0.000000
      4          6           0        1.226720    0.227972   -0.000000
      5          6           0       -1.193434   -1.048374    0.000000
      6          6           0        1.196335   -1.157999    0.000000
      7          6           0       -0.037215   -1.816654    0.000000
      8          1           0       -0.931807    2.523572   -0.000000
      9          1           0        2.153499    0.791624   -0.000000
     10          1           0       -2.177072   -1.512944    0.000000
     11          1           0        2.124927   -1.722764    0.000000
     12          1           0       -0.097797   -2.900129    0.000000
 ---------------------------------------------------------------------

 SCF Done:  E(RHF) =  -321.673998619     A.U. after   13 cycles
 E2 =    -0.1514411032D+01 EUMP2 =    -0.32318840965138D+03

 The electronic state is 1-A'.
 Alpha  occ. eigenvalues --  -20.59620 -15.56637 -11.34354 -11.28488 -11.26618
 Alpha  occ. eigenvalues --  -11.23934 -11.23582  -1.42117  -1.25317  -1.09444
 Alpha  occ. eigenvalues --   -1.02720  -0.87885  -0.85248  -0.74474  -0.70722
 Alpha  occ. eigenvalues --   -0.66640  -0.62247  -0.61111  -0.59710  -0.57308
 Alpha  occ. eigenvalues --   -0.53481  -0.51106  -0.43627  -0.39138  -0.33259
 Alpha virt. eigenvalues --    0.03886   0.04844   0.05247   0.06734   0.07464
 Alpha virt. eigenvalues --    0.08832   0.11260   0.11944   0.12163   0.13391
 Alpha virt. eigenvalues --    0.14192   0.14444   0.15286   0.16568   0.17523

 Mulliken charges:
               1
     1  O   -0.397054
     2  N   -0.504089
     3  C    0.115148
     4  C    0.209691
     5  C   -0.061763
     6  C   -0.105433
     7  C   -0.288060
     8  H    0.315295
     9  H    0.188362
    10  H    0.186084
    11  H    0.190402
    12  H    0.151417
 Sum of Mulliken charges =  -0.00000

 Dipole moment (field-independent basis, Debye):
    X=              0.5199    Y=             -1.5448    Z=             -0.0000  Tot=              1.6300
 Quadrupole moment (field-independent basis, Debye-Ang):
   XX=            -37.4382   YY=            -37.2789   ZZ=            -44.1298
   XY=             -2.2092   XZ=              0.0000   YZ=             -0.0000

 Normal termination of Gaussian 09 at Fri Sep  3 00:41:52 2021.
