 Gaussian 09, Revision E.01,
 Gaussian 09:  EM64L-G09RevE.01 30-Nov-2015

 --------------------
 #p opt freq wB97/gen
 --------------------

 ------------------------
 HY_H2O_wB97_PC2_OPT_FREQ
 ------------------------
 Symbolic Z-matrix:
 Charge =  0 Multiplicity = 1

 SCF Done:  E(RwB97) =  -400.052454400     A.U. after   15 cycles
 SCF Done:  E(RwB97) =  -400.052567086     A.U. after   10 cycles
 SCF Done:  E(RwB97) =  -400.052579943     A.U. after    9 cycles
 SCF Done:  E(RwB97) =  -400.052589228     A.U. after   10 cycles
 SCF Done:  E(RwB97) =  -400.052592961     A.U. after    9 cycles
 SCF Done:  E(RwB97) =  -400.052599246     A.U. after    8 cycles
 SCF Done:  E(RwB97) =  -400.052603891     A.U. after   10 cycles
 SCF Done:  E(RwB97) =  -400.052604479     A.U. after    9 cycles
 Optimization completed.
    -- Stationary point found.
 Normal termination of Gaussian 09 at Fri Aug 27 00:56:49 2021.

 -----------------------------------------------------------------
 #P Geom=AllCheck Guess=TCheck SCRF=Check GenChk RwB97/ChkBas Freq
 -----------------------------------------------------------------

 Structure from the checkpoint file:  "HY_H2O_wB97_PC2_OPT_FREQ.chk"
 ------------------------
 HY_H2O_wB97_PC2_OPT_FREQ
 ------------------------
 Charge =  0 Multiplicity = 1

                         Standard orientation:
 ---------------------------------------------------------------------
 Center     Atomic      Atomic             Coordinates (Angstroms)
 Number     Number       Type             X           Y           Z
 ---------------------------------------------------------------------
      1          8           0        1.212465    1.440005   -0.001255
      2          7           0        0.303512   -0.670223   -0.003686
      3          6           0        0.135623    0.646248    0.000792
      4          6           0       -1.128316    1.254069    0.007714
      5          6           0       -0.791686   -1.443554   -0.004807
      6          6           0       -2.236202    0.441091    0.008086
      7          6           0       -2.075534   -0.947430    0.001240
      8          1           0        2.024053    0.894507   -0.017538
      9          1           0       -1.195505    2.333832    0.010851
     10          1           0       -0.610474   -2.514059   -0.011525
     11          1           0       -3.228586    0.878399    0.012626
     12          1           0       -2.924677   -1.617825   -0.000216
     13          8           0        3.103651   -0.575473   -0.083437
     14          1           0        3.621372   -0.884403    0.660511
     15          1           0        2.236994   -1.017687   -0.029521
 ---------------------------------------------------------------------

 SCF Done:  E(RwB97) =  -400.052604479     A.U. after    1 cycles

 The electronic state is 1-A.
 Alpha  occ. eigenvalues --  -19.01785 -18.99866 -14.23835 -10.23659 -10.18112
 Alpha  occ. eigenvalues --  -10.16323 -10.14291 -10.14051  -1.21247  -1.14766
 Alpha  occ. eigenvalues --   -1.09278  -0.96347  -0.90898  -0.79104  -0.77017
 Alpha  occ. eigenvalues --   -0.68807  -0.67084  -0.64218  -0.61227  -0.57589
 Alpha  occ. eigenvalues --   -0.57306  -0.53815  -0.52818  -0.50902  -0.48614
 Alpha  occ. eigenvalues --   -0.48075  -0.44302  -0.40551  -0.39780  -0.34161
 Alpha virt. eigenvalues --    0.04788   0.07861   0.09889   0.10930   0.12259
 Alpha virt. eigenvalues --    0.13897   0.15265   0.18534   0.20063   0.23141
 Alpha virt. eigenvalues --    0.23563   0.24692   0.25479   0.27124   0.27926

 Mulliken charges:
               1
     1  O   -0.412477
     2  N   -0.556558
     3  C    0.550776
     4  C   -0.103025
     5  C    0.192201
     6  C    0.052741
     7  C   -0.132515
     8  H    0.220885
     9  H    0.047332
    10  H    0.035527
    11  H    0.047174
    12  H    0.037716
    13  O   -0.433059
    14  H    0.221724
    15  H    0.231559
 Sum of Mulliken charges =  -0.00000

 Dipole moment (field-independent basis, Debye):
    X=             -1.7937    Y=             -1.4269    Z=              1.3216  Tot=              2.6458
 Quadrupole moment (field-independent basis, Debye-Ang):
   XX=            -41.6491   YY=            -44.8637   ZZ=            -49.6590
   XY=             -3.2576   XZ=              5.3257   YZ=             -1.3409

  Exact polarizability:  95.069   2.374  82.734   0.816  -0.131  44.331
 Approx polarizability:  92.247   3.238  88.268   0.753  -0.288  49.953

                      1                      2                      3
                      A                      A                      A
 Frequencies --     62.4785               152.5923               200.3857
 Red. masses --      4.9106                 4.6312                 7.9562
 Frc consts  --      0.0113                 0.0635                 0.1882
 IR Inten    --      5.0548                18.0212                 8.2773

                      4                      5                      6
                      A                      A                      A
 Frequencies --    217.1279               258.2141               369.9268
 Red. masses --      4.2359                 1.1173                 1.1790
 Frc consts  --      0.1177                 0.0439                 0.0951
 IR Inten    --      4.6794               116.8056                70.3611

                      7                      8                      9
                      A                      A                      A
 Frequencies --    432.0803               477.6016               539.0912
 Red. masses --      3.0906                 4.6171                 2.4801
 Frc consts  --      0.3400                 0.6205                 0.4247
 IR Inten    --     12.0920                27.8312                13.9242

                     10                     11                     12
                      A                      A                      A
 Frequencies --    578.0261               648.4040               725.3438
 Red. masses --      6.8070                 6.2845                 1.1123
 Frc consts  --      1.3400                 1.5567                 0.3448
 IR Inten    --      1.2113                 0.7371               188.8271

                     13                     14                     15
                      A                      A                      A
 Frequencies --    764.5806               807.2209               817.8772
 Red. masses --      1.6801                 1.0897                 2.3009
 Frc consts  --      0.5787                 0.4184                 0.9068
 IR Inten    --     58.3403                64.8965               102.8545

                     16                     17                     18
                      A                      A                      A
 Frequencies --    877.9269               898.1450              1007.8615
 Red. masses --      5.8230                 1.4320                 1.4006
 Frc consts  --      2.6443                 0.6806                 0.8383
 IR Inten    --      9.7787                 0.8772                 0.2811

                     19                     20                     21
                      A                      A                      A
 Frequencies --   1022.5734              1032.8973              1078.5128
 Red. masses --      6.6727                 1.3359                 1.9246
 Frc consts  --      4.1109                 0.8397                 1.3190
 IR Inten    --     14.0843                 0.1941                 6.2966

                     22                     23                     24
                      A                      A                      A
 Frequencies --   1134.6808              1159.0129              1262.1867
 Red. masses --      1.5008                 1.2315                 2.5216
 Frc consts  --      1.1385                 0.9747                 2.3669
 IR Inten    --      2.3233                24.9234                63.4503

                     25                     26                     27
                      A                      A                      A
 Frequencies --   1308.3291              1367.6227              1424.1233
 Red. masses --      1.6826                 3.1470                 1.3159
 Frc consts  --      1.6969                 3.4680                 1.5724
 IR Inten    --     47.1777                56.8573               105.9921

                     28                     29                     30
                      A                      A                      A
 Frequencies --   1523.2466              1540.3700              1634.1768
 Red. masses --      2.3732                 2.7798                 1.1211
 Frc consts  --      3.2444                 3.8861                 1.7639
 IR Inten    --     32.6209               182.3076                74.9664

                     31                     32                     33
                      A                      A                      A
 Frequencies --   1676.7249              1710.5920              3213.0010
 Red. masses --      5.1885                 5.3809                 1.0906
 Frc consts  --      8.5944                 9.2769                 6.6337
 IR Inten    --    100.6475               142.3332                10.7436

                     34                     35                     36
                      A                      A                      A
 Frequencies --   3231.1739              3255.9434              3262.6810
 Red. masses --      1.0904                 1.0959                 1.0978
 Frc consts  --      6.7073                 6.8448                 6.8856
 IR Inten    --      7.2674                 6.6698                 0.6746

                     37                     38                     39
                      A                      A                      A
 Frequencies --   3523.8471              3621.0365              3946.3648
 Red. masses --      1.0668                 1.0609                 1.0692
 Frc consts  --      7.8049                 8.1955                 9.8105
 IR Inten    --    258.4423               983.6160               100.0358

 - Thermochemistry -
 -------------------
 Temperature   298.150 Kelvin.  Pressure   1.00000 Atm.
 Atom     1 has atomic number  8 and mass  15.99491

 Molecular mass:   113.04768 amu.
 Principal axes and moments of inertia in atomic units:
                           1         2         3
     Eigenvalues --   446.849371276.713771719.74130
           X            0.99990  -0.01288   0.00628
           Y            0.01291   0.99991  -0.00426
           Z           -0.00622   0.00434   0.99997
 This molecule is an asymmetric top.
 Rotational symmetry number  1.
 Warning -- assumption of classical behavior for rotation
           may cause significant error
 Rotational temperatures (Kelvin)      0.19383     0.06784     0.05036
 Rotational constants (GHZ):           4.03881     1.41358     1.04943
 Zero-point vibrational energy     315598.7 (Joules/Mol)
                                   75.42990 (Kcal/Mol)
 Warning -- explicit consideration of  10 degrees of freedom as
           vibrations may cause significant error
 Vibrational temperatures:     89.89   219.55   288.31   312.40   371.51
          (Kelvin)            532.24   621.67   687.16   775.63   831.65
                              932.91  1043.61  1100.06  1161.41  1176.74
                             1263.14  1292.23  1450.09  1471.25  1486.11
                             1551.74  1632.55  1667.56  1816.00  1882.39
                             1967.70  2048.99  2191.61  2216.25  2351.21
                             2412.43  2461.16  4622.79  4648.93  4684.57
                             4694.26  5070.02  5209.86  5677.93

 Zero-point correction=                           0.120205 (Hartree/Particle)
 Thermal correction to Energy=                    0.128100
 Thermal correction to Enthalpy=                  0.129045
 Thermal correction to Gibbs Free Energy=         0.087658
 Sum of electronic and zero-point Energies=           -399.932399
 Sum of electronic and thermal Energies=              -399.924504
 Sum of electronic and thermal Enthalpies=            -399.923560
 Sum of electronic and thermal Free Energies=         -399.964946

                     E (Thermal)             CV                S
                      KCal/Mol        Cal/Mol-Kelvin    Cal/Mol-Kelvin
 Total                   80.384             29.062             87.105
 Electronic               0.000              0.000              0.000
 Translational            0.889              2.981             40.084
 Rotational               0.889              2.981             28.375
 Vibrational             78.607             23.101             18.647
 Vibration     1          0.597              1.972              4.377
 Vibration     2          0.619              1.900              2.640
 Vibration     3          0.638              1.839              2.130
 Vibration     4          0.646              1.815              1.983
 Vibration     5          0.667              1.749              1.674
 Vibration     6          0.742              1.534              1.080
 Vibration     7          0.793              1.400              0.852
 Vibration     8          0.834              1.300              0.717
 Vibration     9          0.894              1.164              0.567
 Vibration    10          0.935              1.079              0.489

 Normal termination of Gaussian 09 at Fri Aug 27 00:58:11 2021.
