 Gaussian 09, Revision E.01,
 Gaussian 09:  EM64L-G09RevE.01 30-Nov-2015

 -----------------------------------------------------------------
 #p opt=(calcfc,qst3,maxcycle=200) freq gen geom=connectivity wb97
 -----------------------------------------------------------------

 ------------------------
 HY_H2O_wB97_PC2_OPT_FREQ
 ------------------------
 Symbolic Z-matrix:
 Charge =  0 Multiplicity = 1

 ------------------------
 PY_H2O_wB97_PC2_OPT_FREQ
 ------------------------
 Symbolic Z-matrix:
 Charge =  0 Multiplicity = 1

 ------------
 TST_H2O_wB97
 ------------
 Symbolic Z-matrix:
 Charge =  0 Multiplicity = 1

 SCF Done:  E(RwB97) =  -400.008474146     A.U. after   15 cycles
 SCF Done:  E(RwB97) =  -400.013232564     A.U. after   14 cycles
 SCF Done:  E(RwB97) =  -400.020697741     A.U. after   14 cycles
 SCF Done:  E(RwB97) =  -400.023962379     A.U. after   14 cycles
 SCF Done:  E(RwB97) =  -400.024757407     A.U. after   14 cycles
 SCF Done:  E(RwB97) =  -400.025895166     A.U. after   13 cycles
 SCF Done:  E(RwB97) =  -400.026221286     A.U. after   12 cycles
 SCF Done:  E(RwB97) =  -400.026340582     A.U. after   12 cycles
 SCF Done:  E(RwB97) =  -400.026360168     A.U. after   10 cycles
 SCF Done:  E(RwB97) =  -400.026363102     A.U. after    9 cycles
 SCF Done:  E(RwB97) =  -400.026363689     A.U. after    8 cycles
 Optimization completed.
    -- Stationary point found.
 Normal termination of Gaussian 09 at Sun Aug 29 00:06:03 2021.

 -----------------------------------------------------------------
 #P Geom=AllCheck Guess=TCheck SCRF=Check GenChk RwB97/ChkBas Freq
 -----------------------------------------------------------------

 Structure from the checkpoint file:  "TST_H2O_wB97.chk"
 ------------------------
 HY_H2O_wB97_PC2_OPT_FREQ
 ------------------------
 Charge =  0 Multiplicity = 1

                         Standard orientation:
 ---------------------------------------------------------------------
 Center     Atomic      Atomic             Coordinates (Angstroms)
 Number     Number       Type             X           Y           Z
 ---------------------------------------------------------------------
      1          8           0        1.373874    1.324890   -0.005933
      2          7           0        0.316564   -0.680193   -0.003599
      3          6           0        0.260979    0.670664   -0.000053
      4          6           0       -1.004017    1.307184    0.008629
      5          6           0       -0.799530   -1.431096   -0.004382
      6          6           0       -2.132449    0.535639    0.009095
      7          6           0       -2.045194   -0.871066    0.001952
      8          1           0        2.211510    0.523579   -0.020370
      9          1           0       -1.034273    2.388390    0.011848
     10          1           0       -0.645374   -2.504037   -0.012302
     11          1           0       -3.106769    1.012323    0.013913
     12          1           0       -2.929027   -1.493371   -0.000085
     13          8           0        2.729120   -0.646626   -0.083965
     14          1           0        3.286328   -0.872003    0.660688
     15          1           0        1.498971   -0.987587   -0.000762
 ---------------------------------------------------------------------

 SCF Done:  E(RwB97) =  -400.026363689     A.U. after    1 cycles

 The electronic state is 1-A.
 Alpha  occ. eigenvalues --  -18.99089 -18.95585 -14.27048 -10.24995 -10.20038
 Alpha  occ. eigenvalues --  -10.17491 -10.15073 -10.15035  -1.20796  -1.10629
 Alpha  occ. eigenvalues --   -1.09217  -0.97673  -0.91786  -0.80557  -0.77676
 Alpha  occ. eigenvalues --   -0.69475  -0.67823  -0.63088  -0.60857  -0.59020
 Alpha  occ. eigenvalues --   -0.58746  -0.55564  -0.52082  -0.51053  -0.48378
 Alpha  occ. eigenvalues --   -0.46662  -0.42376  -0.40743  -0.38687  -0.34135
 Alpha virt. eigenvalues --    0.03232   0.07350   0.09636   0.11231   0.12235
 Alpha virt. eigenvalues --    0.13974   0.15061   0.19458   0.20901   0.22183
 Alpha virt. eigenvalues --    0.23044   0.23854   0.24733   0.26283   0.27578

 Mulliken charges:
               1
     1  O   -0.525466
     2  N   -0.437330
     3  C    0.535993
     4  C   -0.097702
     5  C    0.192252
     6  C    0.060966
     7  C   -0.125510
     8  H    0.309328
     9  H    0.051689
    10  H    0.049731
    11  H    0.052293
    12  H    0.042204
    13  O   -0.617664
    14  H    0.207857
    15  H    0.301358
 Sum of Mulliken charges =  -0.00000

 Dipole moment (field-independent basis, Debye):
    X=             -3.4130    Y=             -1.5200    Z=              1.3589  Tot=              3.9756
 Quadrupole moment (field-independent basis, Debye-Ang):
   XX=            -45.7737   YY=            -44.8995   ZZ=            -49.5541
   XY=             -2.2356   XZ=              4.9440   YZ=             -1.3473

  Exact polarizability: 101.877   2.276  82.515   0.906  -0.231  43.809
 Approx polarizability:  97.667   4.221  88.274   0.837  -0.302  49.754

 ******    1 imaginary frequencies (negative Signs) ******

                      1                      2                      3
                      A                      A                      A
 Frequencies --  -1609.7129               112.0175               214.7012
 Red. masses --      1.0583                 4.9731                 5.1241
 Frc consts  --      1.6156                 0.0368                 0.1392
 IR Inten    --    294.6446                 2.2455                 1.8003

                      4                      5                      6
                      A                      A                      A
 Frequencies --    333.0707               409.8571               434.7797
 Red. masses --      5.1409                 2.3389                 1.6932
 Frc consts  --      0.3360                 0.2315                 0.1886
 IR Inten    --     28.5878                 7.4366                 3.7201

                      7                      8                      9
                      A                      A                      A
 Frequencies --    478.8667               539.7645               580.3985
 Red. masses --      3.3795                 2.4599                 4.4374
 Frc consts  --      0.4566                 0.4223                 0.8807
 IR Inten    --     98.0036                19.1542                39.4511

                     10                     11                     12
                      A                      A                      A
 Frequencies --    612.8751               674.6578               680.5290
 Red. masses --      1.4031                 4.5169                 4.9863
 Frc consts  --      0.3105                 1.2113                 1.3606
 IR Inten    --     56.5874                73.0423               546.4930

                     13                     14                     15
                      A                      A                      A
 Frequencies --    767.3816               811.6198               882.0337
 Red. masses --      1.7674                 2.0182                 5.5761
 Frc consts  --      0.6132                 0.7833                 2.5559
 IR Inten    --     24.4534                47.7054                29.9305

                     16                     17                     18
                      A                      A                      A
 Frequencies --    888.7591               994.2553              1001.9772
 Red. masses --      1.5857                 3.0968                 1.3759
 Frc consts  --      0.7380                 1.8037                 0.8139
 IR Inten    --      5.3702              1134.4513                 1.3214

                     19                     20                     21
                      A                      A                      A
 Frequencies --   1031.5906              1059.7752              1145.8536
 Red. masses --      1.3273                 2.1245                 1.4583
 Frc consts  --      0.8322                 1.4059                 1.1281
 IR Inten    --      0.3272                 7.0649               567.8283

                     22                     23                     24
                      A                      A                      A
 Frequencies --   1171.6988              1221.7198              1293.7151
 Red. masses --      1.1043                 1.3079                 3.6792
 Frc consts  --      0.8932                 1.1502                 3.6281
 IR Inten    --    128.2475              3186.0861                69.9216

                     25                     26                     27
                      A                      A                      A
 Frequencies --   1333.1411              1353.1252              1415.7832
 Red. masses --      1.4612                 1.1157                 1.6395
 Frc consts  --      1.5301                 1.2036                 1.9362
 IR Inten    --    720.2800                37.8905               116.2285

                     28                     29                     30
                      A                      A                      A
 Frequencies --   1421.8661              1515.2757              1586.9525
 Red. masses --      1.3575                 2.6982                 3.8120
 Frc consts  --      1.6170                 3.6502                 5.6563
 IR Inten    --     98.3396                97.6480               262.2373

                     31                     32                     33
                      A                      A                      A
 Frequencies --   1621.4565              1721.9094              1739.3507
 Red. masses --      3.2296                 1.9473                 2.5409
 Frc consts  --      5.0027                 3.4017                 4.5292
 IR Inten    --     84.5294               372.4230               146.7339

                     34                     35                     36
                      A                      A                      A
 Frequencies --   1950.7320              3230.5534              3237.5975
 Red. masses --      1.0713                 1.0891                 1.0926
 Frc consts  --      2.4020                 6.6968                 6.7475
 IR Inten    --    102.7974                 4.4612                 4.1335

                     37                     38                     39
                      A                      A                      A
 Frequencies --   3261.7693              3267.0461              3941.1480
 Red. masses --      1.0970                 1.0976                 1.0661
 Frc consts  --      6.8767                 6.9022                 9.7568
 IR Inten    --      3.1127                 0.0955                41.9992

 - Thermochemistry -
 -------------------
 Temperature   298.150 Kelvin.  Pressure   1.00000 Atm.
 Atom     1 has atomic number  8 and mass  15.99491

 Molecular mass:   113.04768 amu.
 Principal axes and moments of inertia in atomic units:
                           1         2         3
     Eigenvalues --   436.065911123.487201555.71835
           X            0.99987  -0.01439   0.00660
           Y            0.01442   0.99989  -0.00444
           Z           -0.00653   0.00454   0.99997
 This molecule is an asymmetric top.
 Rotational symmetry number  1.
 Warning -- assumption of classical behavior for rotation
           may cause significant error
 Rotational temperatures (Kelvin)      0.19863     0.07709     0.05567
 Rotational constants (GHZ):           4.13869     1.60637     1.16007
    1 imaginary frequencies ignored.
 Zero-point vibrational energy     298705.2 (Joules/Mol)
                                   71.39225 (Kcal/Mol)
 Warning -- explicit consideration of   9 degrees of freedom as
           vibrations may cause significant error
 Vibrational temperatures:    161.17   308.91   479.21   589.69   625.55
          (Kelvin)            688.98   776.60   835.06   881.79   970.68
                              979.13  1104.09  1167.74  1269.05  1278.72
                             1430.51  1441.62  1484.23  1524.78  1648.63
                             1685.81  1757.78  1861.37  1918.09  1946.84
                             2036.99  2045.75  2180.14  2283.27  2332.91
                             2477.44  2502.53  2806.66  4648.04  4658.17
                             4692.95  4700.54  5670.43

 Zero-point correction=                           0.113771 (Hartree/Particle)
 Thermal correction to Energy=                    0.120343
 Thermal correction to Enthalpy=                  0.121287
 Thermal correction to Gibbs Free Energy=         0.082957
 Sum of electronic and zero-point Energies=           -399.912593
 Sum of electronic and thermal Energies=              -399.906020
 Sum of electronic and thermal Enthalpies=            -399.905076
 Sum of electronic and thermal Free Energies=         -399.943406

                     E (Thermal)             CV                S
                      KCal/Mol        Cal/Mol-Kelvin    Cal/Mol-Kelvin
 Total                   75.517             25.772             80.672
 Electronic               0.000              0.000              0.000
 Translational            0.889              2.981             40.084
 Rotational               0.889              2.981             28.124
 Vibrational             73.739             19.810             12.465
 Vibration     1          0.607              1.940              3.234
 Vibration     2          0.645              1.819              2.003
 Vibration     3          0.715              1.609              1.245
 Vibration     4          0.774              1.449              0.927
 Vibration     5          0.795              1.394              0.843
 Vibration     6          0.835              1.297              0.713
 Vibration     7          0.895              1.162              0.566
 Vibration     8          0.937              1.074              0.485
 Vibration     9          0.972              1.005              0.428

 Normal termination of Gaussian 09 at Sun Aug 29 00:07:35 2021.
